<VTKFile type="UnstructuredGrid" version="1,0" byte_order="LittleEndian">
<UnstructuredGrid>
<Piece NumberOfPoints="5802" NumberOfCells="5680">
<Points>
<DataArray type="Float64" NumberOfComponents="3" format="ascii">
-0.1100000000000E+01 -0.5395955351400E+01  0.0000000000000E+00
 0.0000000000000E+00 -0.5395955351400E+01  0.0000000000000E+00
 0.1100000000000E+01 -0.5395955351400E+01  0.0000000000000E+00
-0.1147096914462E+01 -0.2549637197335E+01  0.0000000000000E+00
-0.5735484517343E+00 -0.2434375812148E+01  0.0000000000000E+00
 0.5735484627289E+00 -0.2434375813621E+01  0.0000000000000E+00
 0.1147096914462E+01 -0.2549637197335E+01  0.0000000000000E+00
-0.1849553131613E+01  0.3526358745087E+00  0.0000000000000E+00
 0.1849553119580E+01  0.3526358820960E+00  0.0000000000000E+00
-0.7500000000000E+00 -0.7469172457236E+00  0.0000000000000E+00
 0.7500000000000E+00 -0.7469172457236E+00  0.0000000000000E+00
-0.1072500000000E+01 -0.5395955351400E+01  0.0000000000000E+00
-0.1045000000000E+01 -0.5395955351400E+01  0.0000000000000E+00
-0.1017500000000E+01 -0.5395955351400E+01  0.0000000000000E+00
-0.9900000000000E+00 -0.5395955351400E+01  0.0000000000000E+00
-0.9625000000000E+00 -0.5395955351400E+01  0.0000000000000E+00
-0.9350000000000E+00 -0.5395955351400E+01  0.0000000000000E+00
-0.9075000000000E+00 -0.5395955351400E+01  0.0000000000000E+00
-0.8800000000000E+00 -0.5395955351400E+01  0.0000000000000E+00
-0.8525000000000E+00 -0.5395955351400E+01  0.0000000000000E+00
-0.8250000000000E+00 -0.5395955351400E+01  0.0000000000000E+00
-0.7975000000000E+00 -0.5395955351400E+01  0.0000000000000E+00
-0.7700000000000E+00 -0.5395955351400E+01  0.0000000000000E+00
-0.7425000000000E+00 -0.5395955351400E+01  0.0000000000000E+00
-0.7150000000000E+00 -0.5395955351400E+01  0.0000000000000E+00
-0.6875000000000E+00 -0.5395955351400E+01  0.0000000000000E+00
-0.6600000000000E+00 -0.5395955351400E+01  0.0000000000000E+00
-0.6325000000000E+00 -0.5395955351400E+01  0.0000000000000E+00
-0.6050000000000E+00 -0.5395955351400E+01  0.0000000000000E+00
-0.5775000000000E+00 -0.5395955351400E+01  0.0000000000000E+00
-0.5500000000000E+00 -0.5395955351400E+01  0.0000000000000E+00
-0.5225000000000E+00 -0.5395955351400E+01  0.0000000000000E+00
-0.4950000000000E+00 -0.5395955351400E+01  0.0000000000000E+00
-0.4675000000000E+00 -0.5395955351400E+01  0.0000000000000E+00
-0.4400000000000E+00 -0.5395955351400E+01  0.0000000000000E+00
-0.4125000000000E+00 -0.5395955351400E+01  0.0000000000000E+00
-0.3850000000000E+00 -0.5395955351400E+01  0.0000000000000E+00
-0.3575000000000E+00 -0.5395955351400E+01  0.0000000000000E+00
-0.3300000000000E+00 -0.5395955351400E+01  0.0000000000000E+00
-0.3025000000000E+00 -0.5395955351400E+01  0.0000000000000E+00
-0.2750000000000E+00 -0.5395955351400E+01  0.0000000000000E+00
-0.2475000000000E+00 -0.5395955351400E+01  0.0000000000000E+00
-0.2200000000000E+00 -0.5395955351400E+01  0.0000000000000E+00
-0.1925000000000E+00 -0.5395955351400E+01  0.0000000000000E+00
-0.1650000000000E+00 -0.5395955351400E+01  0.0000000000000E+00
-0.1375000000000E+00 -0.5395955351400E+01  0.0000000000000E+00
-0.1100000000000E+00 -0.5395955351400E+01  0.0000000000000E+00
-0.8250000000000E-01 -0.5395955351400E+01  0.0000000000000E+00
-0.5500000000000E-01 -0.5395955351400E+01  0.0000000000000E+00
-0.2750000000000E-01 -0.5395955351400E+01  0.0000000000000E+00
 0.2750000000000E-01 -0.5395955351400E+01  0.0000000000000E+00
 0.5500000000000E-01 -0.5395955351400E+01  0.0000000000000E+00
 0.8250000000000E-01 -0.5395955351400E+01  0.0000000000000E+00
 0.1100000000000E+00 -0.5395955351400E+01  0.0000000000000E+00
 0.1375000000000E+00 -0.5395955351400E+01  0.0000000000000E+00
 0.1650000000000E+00 -0.5395955351400E+01  0.0000000000000E+00
 0.1925000000000E+00 -0.5395955351400E+01  0.0000000000000E+00
 0.2200000000000E+00 -0.5395955351400E+01  0.0000000000000E+00
 0.2475000000000E+00 -0.5395955351400E+01  0.0000000000000E+00
 0.2750000000000E+00 -0.5395955351400E+01  0.0000000000000E+00
 0.3025000000000E+00 -0.5395955351400E+01  0.0000000000000E+00
 0.3300000000000E+00 -0.5395955351400E+01  0.0000000000000E+00
 0.3575000000000E+00 -0.5395955351400E+01  0.0000000000000E+00
 0.3850000000000E+00 -0.5395955351400E+01  0.0000000000000E+00
 0.4125000000000E+00 -0.5395955351400E+01  0.0000000000000E+00
 0.4400000000000E+00 -0.5395955351400E+01  0.0000000000000E+00
 0.4675000000000E+00 -0.5395955351400E+01  0.0000000000000E+00
 0.4950000000000E+00 -0.5395955351400E+01  0.0000000000000E+00
 0.5225000000000E+00 -0.5395955351400E+01  0.0000000000000E+00
 0.5500000000000E+00 -0.5395955351400E+01  0.0000000000000E+00
 0.5775000000000E+00 -0.5395955351400E+01  0.0000000000000E+00
 0.6050000000000E+00 -0.5395955351400E+01  0.0000000000000E+00
 0.6325000000000E+00 -0.5395955351400E+01  0.0000000000000E+00
 0.6600000000000E+00 -0.5395955351400E+01  0.0000000000000E+00
 0.6875000000000E+00 -0.5395955351400E+01  0.0000000000000E+00
 0.7150000000000E+00 -0.5395955351400E+01  0.0000000000000E+00
 0.7425000000000E+00 -0.5395955351400E+01  0.0000000000000E+00
 0.7700000000000E+00 -0.5395955351400E+01  0.0000000000000E+00
 0.7975000000000E+00 -0.5395955351400E+01  0.0000000000000E+00
 0.8250000000000E+00 -0.5395955351400E+01  0.0000000000000E+00
 0.8525000000000E+00 -0.5395955351400E+01  0.0000000000000E+00
 0.8800000000000E+00 -0.5395955351400E+01  0.0000000000000E+00
 0.9075000000000E+00 -0.5395955351400E+01  0.0000000000000E+00
 0.9350000000000E+00 -0.5395955351400E+01  0.0000000000000E+00
 0.9625000000000E+00 -0.5395955351400E+01  0.0000000000000E+00
 0.9900000000000E+00 -0.5395955351400E+01  0.0000000000000E+00
 0.1017500000000E+01 -0.5395955351400E+01  0.0000000000000E+00
 0.1045000000000E+01 -0.5395955351400E+01  0.0000000000000E+00
 0.1072500000000E+01 -0.5395955351400E+01  0.0000000000000E+00
-0.1118800094603E+01 -0.2542148605822E+01  0.0000000000000E+00
-0.1090457485425E+01 -0.2534835387692E+01  0.0000000000000E+00
-0.1062069939100E+01 -0.2527698663807E+01  0.0000000000000E+00
-0.1033638287274E+01 -0.2520739528902E+01  0.0000000000000E+00
-0.1005163517388E+01 -0.2513959093579E+01  0.0000000000000E+00
-0.9766465596125E+00 -0.2507358430428E+01  0.0000000000000E+00
-0.9480883223854E+00 -0.2500938583705E+01  0.0000000000000E+00
-0.9194898086732E+00 -0.2494700594942E+01  0.0000000000000E+00
-0.8908520313295E+00 -0.2488645482083E+01  0.0000000000000E+00
-0.8621760033544E+00 -0.2482774237100E+01  0.0000000000000E+00
-0.8334627553039E+00 -0.2477087829284E+01  0.0000000000000E+00
-0.8047133091664E+00 -0.2471587199656E+01  0.0000000000000E+00
-0.7759287757051E+00 -0.2466273278811E+01  0.0000000000000E+00
-0.7471102453220E+00 -0.2461146964797E+01  0.0000000000000E+00
-0.7182588268443E+00 -0.2456209130220E+01  0.0000000000000E+00
-0.6893756470636E+00 -0.2451460621464E+01  0.0000000000000E+00
-0.6604618502518E+00 -0.2446902257924E+01  0.0000000000000E+00
-0.6315185976533E+00 -0.2442534831257E+01  0.0000000000000E+00
-0.6025470669550E+00 -0.2438359104659E+01  0.0000000000000E+00
-0.5450278669081E+00 -0.2430649781759E+01  0.0000000000000E+00
-0.5164834701774E+00 -0.2427110885343E+01  0.0000000000000E+00
-0.4879164328896E+00 -0.2423759732709E+01  0.0000000000000E+00
-0.4593279369588E+00 -0.2420596903906E+01  0.0000000000000E+00
-0.4307191566174E+00 -0.2417622946975E+01  0.0000000000000E+00
-0.4020913288847E+00 -0.2414838384764E+01  0.0000000000000E+00
-0.3734456725253E+00 -0.2412243705709E+01  0.0000000000000E+00
-0.3447834166166E+00 -0.2409839366687E+01  0.0000000000000E+00
-0.3161057919591E+00 -0.2407625791989E+01  0.0000000000000E+00
-0.2874140476292E+00 -0.2405603374330E+01  0.0000000000000E+00
-0.2587094494941E+00 -0.2403772474101E+01  0.0000000000000E+00
-0.2299932608336E+00 -0.2402133417728E+01  0.0000000000000E+00
-0.2012667517491E+00 -0.2400686498163E+01  0.0000000000000E+00
-0.1725311980367E+00 -0.2399431974579E+01  0.0000000000000E+00
-0.1437878753826E+00 -0.2398370071952E+01  0.0000000000000E+00
-0.1150380789454E+00 -0.2397500981571E+01  0.0000000000000E+00
-0.8628309859780E-01 -0.2396824859859E+01  0.0000000000000E+00
-0.5752422729595E-01 -0.2396341828649E+01  0.0000000000000E+00
-0.2876276031036E-01 -0.2396051975057E+01  0.0000000000000E+00
 0.5546389486577E-08 -0.2395955351400E+01  0.0000000000000E+00
 0.2876277140288E-01 -0.2396051975132E+01  0.0000000000000E+00
 0.5752423838773E-01 -0.2396341828798E+01  0.0000000000000E+00
 0.8628310968833E-01 -0.2396824860083E+01  0.0000000000000E+00
 0.1150380900341E+00 -0.2397500981869E+01  0.0000000000000E+00
 0.1437878864691E+00 -0.2398370072324E+01  0.0000000000000E+00
 0.1725312091205E+00 -0.2399431975026E+01  0.0000000000000E+00
 0.2012667628296E+00 -0.2400686498684E+01  0.0000000000000E+00
 0.2299932719104E+00 -0.2402133418324E+01  0.0000000000000E+00
 0.2587094605666E+00 -0.2403772474771E+01  0.0000000000000E+00
 0.2874140586971E+00 -0.2405603375073E+01  0.0000000000000E+00
 0.3161058030217E+00 -0.2407625792806E+01  0.0000000000000E+00
 0.3447834276736E+00 -0.2409839367578E+01  0.0000000000000E+00
 0.3734456835761E+00 -0.2412243706673E+01  0.0000000000000E+00
 0.4020913399289E+00 -0.2414838385802E+01  0.0000000000000E+00
 0.4307191676545E+00 -0.2417622948085E+01  0.0000000000000E+00
 0.4593279479883E+00 -0.2420596905089E+01  0.0000000000000E+00
 0.4879164439111E+00 -0.2423759733965E+01  0.0000000000000E+00
 0.5164834811903E+00 -0.2427110886672E+01  0.0000000000000E+00
 0.5450278779121E+00 -0.2430649783160E+01  0.0000000000000E+00
 0.6025470773903E+00 -0.2438359106128E+01  0.0000000000000E+00
 0.6315186075299E+00 -0.2442534832714E+01  0.0000000000000E+00
 0.6604618595705E+00 -0.2446902259361E+01  0.0000000000000E+00
 0.6893756558250E+00 -0.2451460622875E+01  0.0000000000000E+00
 0.7182588350492E+00 -0.2456209131597E+01  0.0000000000000E+00
 0.7471102529713E+00 -0.2461146966132E+01  0.0000000000000E+00
 0.7759287827998E+00 -0.2466273280097E+01  0.0000000000000E+00
 0.8047133157075E+00 -0.2471587200886E+01  0.0000000000000E+00
[...]
<PointData Vectors="'U'">
<DataArray type="Float64" Name="U" NumberOfComponents="2" ComponentName0="U1" ComponentName1="U2" format="ascii">
 0.1295206408803E-49  0.3306492420079E-49
-0.2807157664900E-37 -0.4334476379605E-37
 0.1443946072910E-49 -0.3681580251176E-49
-0.9573732257046E-02 -0.2744356514142E-01
-0.4253149715232E-02 -0.1815099432993E-01
 0.4253149819721E-02 -0.1815099437697E-01
 0.9573732288214E-02 -0.2744356516401E-01
-0.1758483415110E+00 -0.3559919311799E+00
 0.1758483398926E+00 -0.3559919352883E+00
-0.3645948036404E+00 -0.6141880452118E+00
 0.3645948039177E+00 -0.6141880454161E+00
-0.3767222517578E-37 -0.8617573406196E-37
-0.3723129113644E-37 -0.7972578645200E-37
-0.3666531116570E-37 -0.7517933532673E-37
-0.3608273197153E-37 -0.7177786334376E-37
-0.3553078605323E-37 -0.6911026902285E-37
-0.3502482660896E-37 -0.6693847183487E-37
-0.3456653813644E-37 -0.6511649981089E-37
-0.3415235536032E-37 -0.6355043927235E-37
-0.3377710586776E-37 -0.6217734630795E-37
-0.3343551292850E-37 -0.6095353662206E-37
-0.3312276074981E-37 -0.5984777333618E-37
-0.3283465707957E-37 -0.5883713715405E-37
-0.3256763051116E-37 -0.5790443593808E-37
-0.3231866620168E-37 -0.5703651757929E-37
-0.3208522591640E-37 -0.5622314804913E-37
-0.3186517033677E-37 -0.5545624202765E-37
-0.3165669036259E-37 -0.5472932381546E-37
-0.3145824883704E-37 -0.5403714164069E-37
-0.3126853146377E-37 -0.5337538567670E-37
-0.3108656875246E-37 -0.5274058266515E-37
-0.3091185616246E-37 -0.5214875976090E-37
-0.3074278418349E-37 -0.5157827545794E-37
-0.3057861037006E-37 -0.5102696086819E-37
-0.3041867651083E-37 -0.5049294207939E-37
-0.3026239408382E-37 -0.4997458292302E-37
-0.3010923236796E-37 -0.4947044273266E-37
-0.2995870847744E-37 -0.4897923734918E-37
-0.2981037915679E-37 -0.4849981124847E-37
-0.2966383391271E-37 -0.4803111374195E-37
-0.2951868928408E-37 -0.4757218047376E-37
-0.2937458402747E-37 -0.4712211771304E-37
-0.2923117508373E-37 -0.4668008878539E-37
-0.2908813420785E-37 -0.4624530388444E-37
-0.2894514513786E-37 -0.4581701136306E-37
-0.2880190123075E-37 -0.4539449040451E-37
-0.2865810348080E-37 -0.4497704594126E-37
-0.2851345887174E-37 -0.4456400298025E-37
-0.2836767901626E-37 -0.4415470309292E-37
-0.2822047903585E-37 -0.4374850133043E-37
-0.2792069143710E-37 -0.4294286582895E-37
-0.2776754426444E-37 -0.4254219057604E-37
-0.2761185683130E-37 -0.4214212798603E-37
-0.2745335133883E-37 -0.4174207427139E-37
-0.2729175025056E-37 -0.4134143165070E-37
-0.2712677613729E-37 -0.4093960839058E-37
-0.2695815157459E-37 -0.4053601946542E-37
-0.2678559912920E-37 -0.4013008623212E-37
-0.2660884135214E-37 -0.3972123804433E-37
-0.2642760081832E-37 -0.3930891317908E-37
-0.2624160018257E-37 -0.3889256024174E-37
-0.2605056221708E-37 -0.3847164030992E-37
-0.2585420986746E-37 -0.3804562840129E-37
-0.2565226625928E-37 -0.3761401613638E-37
-0.2544445460092E-37 -0.3717631574193E-37
-0.2523049801423E-37 -0.3673206397997E-37
-0.2501011911653E-37 -0.3628082866224E-37
-0.2478303969172E-37 -0.3582221280495E-37
-0.2454898069539E-37 -0.3535586796088E-37
-0.2430749747876E-37 -0.3488140648633E-37
-0.2405958653064E-37 -0.3437957408755E-37
-0.2380397463492E-37 -0.3386938333475E-37
-0.2354036554467E-37 -0.3335083728140E-37
-0.2326844377753E-37 -0.3282410883832E-37
-0.2298786255402E-37 -0.3228960437748E-37
-0.2269822438600E-37 -0.3174805731286E-37
-0.2239904971926E-37 -0.3120066895520E-37
-0.2208972569161E-37 -0.3064932598913E-37
-0.2176942155689E-37 -0.3009694614261E-37
-0.2143694791284E-37 -0.2954804791796E-37
-0.2109052391791E-37 -0.2900971852143E-37
-0.2072739744927E-37 -0.2849336214443E-37
-0.2034326718343E-37 -0.2801801757631E-37
-0.1993158098051E-37 -0.2761714492045E-37
-0.1948354213066E-37 -0.2735382750407E-37
-0.1899345365456E-37 -0.2735908936924E-37
-0.1849375677515E-37 -0.2794494806197E-37
-0.1826213420396E-37 -0.3001893878942E-37
-0.2023451211310E-37 -0.3714697921296E-37
-0.8806460922094E-02 -0.2523678254260E-01
-0.8328995059298E-02 -0.2394953298842E-01
-0.7968714376950E-02 -0.2304762254067E-01
-0.7671726806509E-02 -0.2235012896240E-01
-0.7411235516088E-02 -0.2177974999882E-01
-0.7172424128464E-02 -0.2129716068646E-01
-0.6946756752298E-02 -0.2087980523480E-01
-0.6729190308280E-02 -0.2051350113076E-01
-0.6516673412558E-02 -0.2018866010628E-01
-0.6307313409787E-02 -0.1989842039050E-01
-0.6099907131702E-02 -0.1963764882713E-01
-0.5893673033497E-02 -0.1940236993276E-01
-0.5688097556886E-02 -0.1918942025284E-01
-0.5482844922980E-02 -0.1899622557603E-01
-0.5277706424015E-02 -0.1882065212308E-01
-0.5072573831630E-02 -0.1866090059625E-01
-0.4867430297328E-02 -0.1851542454509E-01
-0.4662353836199E-02 -0.1838285484880E-01
-0.4457534287591E-02 -0.1826190970722E-01
-0.4052362503519E-02 -0.1805186929322E-01
-0.3848458095251E-02 -0.1796158152684E-01
-0.3642519053429E-02 -0.1787928236568E-01
-0.3434991831808E-02 -0.1780445638034E-01
-0.3226139268332E-02 -0.1773657726372E-01
-0.3016126675658E-02 -0.1767515227638E-01
-0.2805068916000E-02 -0.1761973105699E-01
-0.2593054480334E-02 -0.1756990681309E-01
-0.2380158480033E-02 -0.1752531411793E-01
-0.2166449996836E-02 -0.1748562606596E-01
-0.1951996093282E-02 -0.1745055152053E-01
-0.1736863892530E-02 -0.1741983271010E-01
-0.1521121828979E-02 -0.1739324326924E-01
-0.1304840204441E-02 -0.1737058662342E-01
-0.1088091335664E-02 -0.1735169467757E-01
-0.8709496660137E-03 -0.1733642678244E-01
-0.6534913931381E-03 -0.1732466888966E-01
-0.4357942553603E-03 -0.1731633291889E-01
-0.2179371886794E-03 -0.1731135628204E-01
 0.5412885662933E-10 -0.1730970155478E-01
 0.2179372969255E-03 -0.1731135628365E-01
 0.4357943635718E-03 -0.1731633292210E-01
 0.6534915012921E-03 -0.1732466889450E-01
 0.8709497740880E-03 -0.1733642678894E-01
 0.1088091443637E-02 -0.1735169468577E-01
 0.1304840312292E-02 -0.1737058663337E-01
 0.1521121936688E-02 -0.1739324328101E-01
 0.1736864000079E-02 -0.1741983272375E-01
 0.1951996200654E-02 -0.1745055153615E-01
 0.2166450104015E-02 -0.1748562608364E-01
 0.2380158587006E-02 -0.1752531413778E-01
 0.2593054587089E-02 -0.1756990683523E-01
 0.2805069022526E-02 -0.1761973108156E-01
 0.3016126781946E-02 -0.1767515230352E-01
 0.3226139374372E-02 -0.1773657729360E-01
 0.3434991937593E-02 -0.1780445641317E-01
 0.3642519158946E-02 -0.1787928240165E-01
 0.3848458200480E-02 -0.1796158156620E-01
 0.4052362608422E-02 -0.1805186933623E-01
 0.4457534387841E-02 -0.1826190975640E-01
 0.4662353932202E-02 -0.1838285490003E-01
 0.4867430389113E-02 -0.1851542459830E-01
 0.5072573919239E-02 -0.1866090065133E-01
 0.5277706507497E-02 -0.1882065217993E-01
 0.5482845002388E-02 -0.1899622563453E-01
 0.5688097632280E-02 -0.1918942031284E-01
 0.5893673104942E-02 -0.1940236999411E-01
 0.6099907199271E-02 -0.1963764888963E-01
 0.6307313473568E-02 -0.1989842045393E-01
 0.6516673472657E-02 -0.2018866017038E-01
 0.6729190364833E-02 -0.2051350119522E-01
 0.6946756805482E-02 -0.2087980529927E-01
 0.7172424178514E-02 -0.2129716075053E-01
 0.7411235563306E-02 -0.2177975006201E-01
 0.7671726851261E-02 -0.2235012902413E-01
 0.7968714419607E-02 -0.2304762260021E-01
 0.8328995100068E-02 -0.2394953304451E-01
 0.8806460960703E-02 -0.2523678259156E-01
-0.1711598908374E+00 -0.1364728504181E+00
-0.2580285839161E+00 -0.2138358036797E+00
-0.3223691036990E+00 -0.2714947307026E+00
-0.3715123595909E+00 -0.3192970968125E+00
-0.4097387987657E+00 -0.3591804391509E+00
-0.4396812454379E+00 -0.3912607025043E+00
-0.4632738489643E+00 -0.4143861764259E+00
-0.4816183851342E+00 -0.4279244087150E+00
-0.4936578173265E+00 -0.4316579805046E+00
-0.4979592204386E+00 -0.4258507866154E+00
-0.4938424343602E+00 -0.4129039326145E+00
-0.4812140263995E+00 -0.3955008987097E+00
-0.4602962820560E+00 -0.3759640295068E+00
-0.4315996613838E+00 -0.3564273411856E+00
-0.3959503758608E+00 -0.3387184605262E+00
-0.3544031950128E+00 -0.3247040380129E+00
-0.3084155469658E+00 -0.3163467408216E+00
-0.2595128939430E+00 -0.3136270066800E+00
-0.2116165978420E+00 -0.3247207716221E+00
-0.1643927310937E+00 -0.3816683071619E+00
-0.1570554101656E+00 -0.4087857076704E+00
-0.1525060572523E+00 -0.4366215523527E+00
-0.1504504839741E+00 -0.4650701262166E+00
-0.1505748505235E+00 -0.4942716458083E+00
-0.1521224977033E+00 -0.5247564948250E+00
-0.1546648683313E+00 -0.5573188180543E+00
-0.1579799479402E+00 -0.5930608557142E+00
-0.1619001886950E+00 -0.6335483251924E+00
-0.1662579141278E+00 -0.6811033261098E+00
-0.1700814140172E+00 -0.7399257985266E+00
-0.1699502469827E+00 -0.8168631948476E+00
-0.1638976193422E+00 -0.9106852503634E+00
-0.1526777699834E+00 -0.1010553723481E+01
-0.1367363952664E+00 -0.1107286729332E+01
-0.1162905810986E+00 -0.1194089620029E+01
-0.9166277410332E-01 -0.1266001764956E+01
-0.6342743636953E-01 -0.1319555500521E+01
-0.3246868575644E-01 -0.1352499185239E+01
-0.2036282145011E-08 -0.1363597463330E+01
 0.3246868179704E-01 -0.1352499188588E+01
 0.6342743271757E-01 -0.1319555507101E+01
 0.9166277090330E-01 -0.1266001774502E+01
 0.1162905784449E+00 -0.1194089632102E+01
 0.1367363932145E+00 -0.1107286743273E+01
 0.1526777685613E+00 -0.1010553738397E+01
 0.1638976185987E+00 -0.9106852650662E+00
 0.1699502470715E+00 -0.8168632076770E+00
 0.1700814149228E+00 -0.7399258085278E+00
 0.1662579154110E+00 -0.6811033339267E+00
 0.1619001899829E+00 -0.6335483317836E+00
 0.1579799491968E+00 -0.5930608615107E+00
 0.1546648695162E+00 -0.5573188233358E+00
 0.1521224987743E+00 -0.5247564997824E+00
 0.1505748514287E+00 -0.4942716505730E+00
 0.1504504846296E+00 -0.4650701308797E+00
 0.1525060575566E+00 -0.4366215569566E+00
 0.1570554100257E+00 -0.4087857122121E+00
 0.1643927303543E+00 -0.3816683115886E+00
 0.2116165947842E+00 -0.3247207740662E+00
 0.2595128905685E+00 -0.3136270073858E+00
 0.3084155439191E+00 -0.3163467410161E+00
 0.3544031923836E+00 -0.3247040378246E+00
 0.3959503737203E+00 -0.3387184600760E+00
 0.4315996597593E+00 -0.3564273406114E+00
 0.4602962809471E+00 -0.3759640289152E+00
 0.4812140257809E+00 -0.3955008982043E+00
 0.4938424341845E+00 -0.4129039322866E+00
 0.4979592206416E+00 -0.4258507865455E+00
 0.4936578178282E+00 -0.4316579807535E+00
 0.4816183858327E+00 -0.4279244092708E+00
 0.4632738497512E+00 -0.4143861772175E+00
 0.4396812462889E+00 -0.3912607034578E+00
 0.4097387996755E+00 -0.3591804401568E+00
 0.3715123605272E+00 -0.3192970977745E+00
 0.3223691046092E+00 -0.2714947315468E+00
 0.2580285847363E+00 -0.2138358043479E+00
 0.1711598914734E+00 -0.1364728508574E+00
-0.3894928670309E-03 -0.6825536929701E-03
-0.6341637889512E-03 -0.1172236175516E-02
-0.8248413837007E-03 -0.1628572711297E-02
-0.9767694251494E-03 -0.2065583473819E-02
-0.1100534840346E-02 -0.2492328673085E-02
-0.1201584653357E-02 -0.2913525521957E-02
-0.1283963476395E-02 -0.3332026591878E-02
-0.1350565151369E-02 -0.3749736978590E-02
-0.1403649587884E-02 -0.4167998283136E-02
-0.1445021264220E-02 -0.4587815315570E-02
-0.1476167230816E-02 -0.5009982219892E-02
-0.1498340124415E-02 -0.5435164248259E-02
-0.1512618552724E-02 -0.5863953164332E-02
-0.1519951958109E-02 -0.6296908129419E-02
-0.1521196713778E-02 -0.6734586288180E-02
-0.1517147004662E-02 -0.7177567727157E-02
-0.1508562793697E-02 -0.7626479839998E-02
-0.1496196606460E-02 -0.8082013002725E-02
-0.1480820046442E-02 -0.8544943396589E-02
-0.1463251236436E-02 -0.9016147690912E-02
-0.1444384267896E-02 -0.9496608389713E-02
-0.1425218064751E-02 -0.9987481818188E-02
-0.1406892577563E-02 -0.1049006302008E-01
-0.1390724017100E-02 -0.1100586039387E-01
-0.1378246797598E-02 -0.1153662319024E-01
-0.1371259371930E-02 -0.1208443304989E-01
-0.1371873922334E-02 -0.1265188433792E-01
-0.1382796287849E-02 -0.1324256529919E-01
-0.1407873806484E-02 -0.1386070821748E-01
-0.1452095049544E-02 -0.1451022922321E-01
-0.1521398925555E-02 -0.1519470946869E-01
-0.1622750703220E-02 -0.1591786619099E-01
-0.1764447834820E-02 -0.1668405333021E-01
-0.1956636887004E-02 -0.1749889659513E-01
-0.2212404645840E-02 -0.1837034994134E-01
-0.2548937285393E-02 -0.1930998925791E-01
-0.2993350112693E-02 -0.2033759056967E-01
-0.3579501442117E-02 -0.2148345728762E-01
-0.4421530853074E-02 -0.2282551029352E-01
-0.5489988030890E-02 -0.2453612896476E-01
 0.5489988051964E-02 -0.2453612898054E-01
 0.4421530875388E-02 -0.2282551030885E-01
 0.3579501463175E-02 -0.2148345730297E-01
 0.2993350132789E-02 -0.2033759058476E-01
 0.2548937304464E-02 -0.1930998927270E-01
 0.2212404663915E-02 -0.1837034995580E-01
 0.1956636904091E-02 -0.1749889660919E-01
 0.1764447850953E-02 -0.1668405334385E-01
 0.1622750718437E-02 -0.1591786620418E-01
 0.1521398939897E-02 -0.1519470948141E-01
 0.1452095063055E-02 -0.1451022923546E-01
 0.1407873819206E-02 -0.1386070822927E-01
 0.1382796299821E-02 -0.1324256531054E-01
 0.1371873933587E-02 -0.1265188434885E-01
 0.1371259382487E-02 -0.1208443306043E-01
 0.1378246807480E-02 -0.1153662320040E-01
 0.1390724026326E-02 -0.1100586040365E-01
 0.1406892586154E-02 -0.1049006302949E-01
 0.1425218072730E-02 -0.9987481827213E-02
 0.1444384275283E-02 -0.9496608398362E-02
 0.1463251243254E-02 -0.9016147699181E-02
 0.1480820052714E-02 -0.8544943404483E-02
 0.1496196612209E-02 -0.8082013010235E-02
 0.1508562798946E-02 -0.7626479847123E-02
 0.1517147009435E-02 -0.7177567733895E-02
 0.1521196718098E-02 -0.6734586294527E-02
 0.1519951962001E-02 -0.6296908135373E-02
 0.1512618556212E-02 -0.5863953169891E-02
 0.1498340127523E-02 -0.5435164253420E-02
 0.1476167233569E-02 -0.5009982224652E-02
 0.1445021266641E-02 -0.4587815319927E-02
 0.1403649589997E-02 -0.4167998287087E-02
 0.1350565153197E-02 -0.3749736982134E-02
 0.1283963477961E-02 -0.3332026595012E-02
 0.1201584654681E-02 -0.2913525524678E-02
 0.1100534841448E-02 -0.2492328675391E-02
 0.9767694260458E-03 -0.2065583475707E-02
 0.8248413844028E-03 -0.1628572712762E-02
 0.6341637894633E-03 -0.1172236176548E-02
 0.3894928673326E-03 -0.6825536935548E-03
-0.3533176592411E+00 -0.6289685685355E+00
-0.3415235033146E+00 -0.6441709822720E+00
-0.3290511914281E+00 -0.6596708980423E+00
-0.3158290045950E+00 -0.6753656318980E+00
-0.3018069201708E+00 -0.6911404368267E+00
-0.2869488493894E+00 -0.7068692344063E+00
-0.2712305062953E+00 -0.7224160582654E+00
-0.2546394407411E+00 -0.7376363966010E+00
-0.2371757899935E+00 -0.7523796507486E+00
-0.2188527225651E+00 -0.7664925820203E+00
-0.1996965805604E+00 -0.7798226171029E+00
-0.1797466421210E+00 -0.7922207241858E+00
-0.1590546607390E+00 -0.8035437932442E+00
-0.1376841522302E+00 -0.8136574288394E+00
-0.1157095905756E+00 -0.8224388596499E+00
-0.9321536343342E-01 -0.8297796093003E+00
-0.7029451162792E-01 -0.8355878064702E+00
-0.4704724198179E-01 -0.8397900866801E+00
-0.2357926372039E-01 -0.8423330623382E+00
 0.1028935644929E-09 -0.8431843365171E+00
 0.2357926392664E-01 -0.8423330623527E+00
 0.4704724218943E-01 -0.8397900867092E+00
 0.7029451183785E-01 -0.8355878065141E+00
 0.9321536364654E-01 -0.8297796093593E+00
 0.1157095907928E+00 -0.8224388597240E+00
 0.1376841524521E+00 -0.8136574289288E+00
 0.1590546609665E+00 -0.8035437933491E+00
 0.1797466423546E+00 -0.7922207243061E+00
 0.1996965808007E+00 -0.7798226172384E+00
 0.2188527228126E+00 -0.7664925821706E+00
 0.2371757902483E+00 -0.7523796509131E+00
 0.2546394410033E+00 -0.7376363967787E+00
 0.2712305065644E+00 -0.7224160584549E+00
 0.2869488496647E+00 -0.7068692346057E+00
 0.3018069204511E+00 -0.6911404370340E+00
 0.3158290048787E+00 -0.6753656321108E+00
 0.3290511917133E+00 -0.6596708982581E+00
 0.3415235035991E+00 -0.6441709824877E+00
 0.3533176595227E+00 -0.6289685687479E+00
-0.3641329369901E+00 -0.5852914329074E+00
-0.3620858092703E+00 -0.5557769012824E+00
-0.3582529382872E+00 -0.5253941677542E+00
-0.3525726099990E+00 -0.4942209076650E+00
-0.3450134551670E+00 -0.4623391750590E+00
-0.3354880685249E+00 -0.4298138458970E+00
-0.3239202483817E+00 -0.3966911738624E+00
-0.3102879260887E+00 -0.3630124120502E+00
-0.2946658879843E+00 -0.3288400809616E+00
-0.2772417293898E+00 -0.2942957116669E+00
-0.2582653699533E+00 -0.2596052389446E+00
-0.2379520869375E+00 -0.2251287752409E+00
-0.2163951847014E+00 -0.1913441017343E+00
-0.1935067450338E+00 -0.1587857723071E+00
-0.1690096455118E+00 -0.1279904858943E+00
-0.1424741366506E+00 -0.9947827079281E-01
-0.1133628469718E+00 -0.7375436718710E-01
-0.8106932391119E-01 -0.5131528876751E-01
-0.4494863799273E-01 -0.3263587202822E-01
 0.3641329372082E+00 -0.5852914330974E+00
 0.3620858094607E+00 -0.5557769014584E+00
 0.3582529384689E+00 -0.5253941679164E+00
 0.3525726101754E+00 -0.4942209078130E+00
 0.3450134553459E+00 -0.4623391751910E+00
 0.3354880687199E+00 -0.4298138460107E+00
 0.3239202486122E+00 -0.3966911739555E+00
 0.3102879263809E+00 -0.3630124121210E+00
 0.2946658883706E+00 -0.3288400810099E+00
 0.2772417299053E+00 -0.2942957116961E+00
 0.2582653706295E+00 -0.2596052389638E+00
 0.2379520877936E+00 -0.2251287752659E+00
 0.2163951857365E+00 -0.1913441017854E+00
 0.1935067462227E+00 -0.1587857724030E+00
 0.1690096468029E+00 -0.1279904860457E+00
 0.1424741379655E+00 -0.9947827099698E-01
 0.1133628482055E+00 -0.7375436742475E-01
 0.8106932493289E-01 -0.5131528900147E-01
 0.4494863864763E-01 -0.3263587220297E-01
-0.3802880270388E+00 -0.6149802770650E+00
-0.3925927689923E+00 -0.6121077525354E+00
-0.4011220276957E+00 -0.6059327869034E+00
-0.4057419460699E+00 -0.5968722639583E+00
-0.4064417170904E+00 -0.5853691746001E+00
-0.4033259233242E+00 -0.5719053260497E+00
-0.3966147738410E+00 -0.5569806018437E+00
-0.3866389634746E+00 -0.5410873783528E+00
-0.3738256511359E+00 -0.5246821682627E+00
-0.3586752554349E+00 -0.5081581210037E+00
-0.3417299854423E+00 -0.4918209868794E+00
-0.3235362132471E+00 -0.4758713748109E+00
-0.3046043484610E+00 -0.4603963379334E+00
-0.2853717033866E+00 -0.4453731682938E+00
-0.2661753118300E+00 -0.4306870632913E+00
-0.2472415107264E+00 -0.4161614658583E+00
-0.2286960751970E+00 -0.4015957814010E+00
-0.2105934528872E+00 -0.3868018033254E+00
-0.1929606184293E+00 -0.3716325424907E+00
 0.3802880271960E+00 -0.6149802775664E+00
 0.3925927690542E+00 -0.6121077533211E+00
 0.4011220276812E+00 -0.6059327879533E+00
 0.4057419459898E+00 -0.5968722652474E+00
 0.4064417169472E+00 -0.5853691761005E+00
 0.4033259231117E+00 -0.5719053277330E+00
 0.3966147735460E+00 -0.5569806036835E+00
 0.3866389630787E+00 -0.5410873803271E+00
 0.3738256506185E+00 -0.5246821703559E+00
 0.3586752547769E+00 -0.5081581232078E+00
 0.3417299846295E+00 -0.4918209891951E+00
 0.3235362122732E+00 -0.4758713772472E+00
 0.3046043473298E+00 -0.4603963405061E+00
 0.2853717021114E+00 -0.4453731710241E+00
 0.2661753104328E+00 -0.4306870662025E+00
 0.2472415092336E+00 -0.4161614689733E+00
 0.2286960736367E+00 -0.4015957847406E+00
 0.2105934512857E+00 -0.3868018069070E+00
 0.1929606168097E+00 -0.3716325463287E+00
-0.3268540046138E-03 -0.5708613885152E-03
-0.5903296889886E-03 -0.1098220760688E-02
-0.7813576226312E-03 -0.1568436430074E-02
-0.9353171838203E-03 -0.2018012312895E-02
-0.1059805297851E-02 -0.2454906594370E-02
-0.1161297632544E-02 -0.2884747645985E-02
-0.1243806641225E-02 -0.3310747425144E-02
-0.1310348077832E-02 -0.3735071174053E-02
-0.1363223269873E-02 -0.4159237433691E-02
-0.1404272161127E-02 -0.4584379337420E-02
-0.1435003336369E-02 -0.5011386553621E-02
-0.1456684309224E-02 -0.5440996877937E-02
-0.1470403304252E-02 -0.5873857536045E-02
-0.1477115776066E-02 -0.6310569737601E-02
-0.1477681457342E-02 -0.6751721513547E-02
-0.1472895996460E-02 -0.7197914015869E-02
-0.1463519518944E-02 -0.7649786603306E-02
-0.1450303920893E-02 -0.8108032764021E-02
-0.1434019834395E-02 -0.8573422876304E-02
-0.1415484495513E-02 -0.9046818497105E-02
-0.1395591521595E-02 -0.9529177105023E-02
-0.1375340052393E-02 -0.1002161932920E-01
-0.1355871042192E-02 -0.1052539250151E-01
-0.1338502207976E-02 -0.1104194385755E-01
-0.1324769171192E-02 -0.1157294524543E-01
-0.1316466258276E-02 -0.1212038162531E-01
-0.1315703323734E-02 -0.1268668175573E-01
-0.1325219032075E-02 -0.1327478997172E-01
-0.1348955468427E-02 -0.1388795571368E-01
-0.1392041282981E-02 -0.1452938729357E-01
-0.1460565160000E-02 -0.1520217703728E-01
-0.1561652330948E-02 -0.1590953753442E-01
-0.1703768163163E-02 -0.1665515327164E-01
-0.1897312336441E-02 -0.1744363872290E-01