<VTKFile type="UnstructuredGrid" version="1,0" byte_order="LittleEndian">
<UnstructuredGrid>
<Piece NumberOfPoints="566" NumberOfCells="528">
<Points>
<DataArray type="Float64" NumberOfComponents="3" format="ascii">
-0.1100000000000E+01 -0.5395955351400E+01  0.0000000000000E+00
 0.0000000000000E+00 -0.5395955351400E+01  0.0000000000000E+00
 0.1100000000000E+01 -0.5395955351400E+01  0.0000000000000E+00
-0.1147096914462E+01 -0.2549637197335E+01  0.0000000000000E+00
-0.5735484517343E+00 -0.2434375812148E+01  0.0000000000000E+00
 0.5735484627289E+00 -0.2434375813621E+01  0.0000000000000E+00
 0.1147096914462E+01 -0.2549637197335E+01  0.0000000000000E+00
-0.1849553131613E+01  0.3526358745087E+00  0.0000000000000E+00
 0.1849553119580E+01  0.3526358820960E+00  0.0000000000000E+00
-0.7500000000000E+00 -0.7469172457236E+00  0.0000000000000E+00
 0.7500000000000E+00 -0.7469172457236E+00  0.0000000000000E+00
-0.1008333333333E+01 -0.5395955351400E+01  0.0000000000000E+00
-0.9166666666667E+00 -0.5395955351400E+01  0.0000000000000E+00
-0.8250000000000E+00 -0.5395955351400E+01  0.0000000000000E+00
-0.7333333333333E+00 -0.5395955351400E+01  0.0000000000000E+00
-0.6416666666667E+00 -0.5395955351400E+01  0.0000000000000E+00
-0.5500000000000E+00 -0.5395955351400E+01  0.0000000000000E+00
-0.4583333333333E+00 -0.5395955351400E+01  0.0000000000000E+00
-0.3666666666667E+00 -0.5395955351400E+01  0.0000000000000E+00
-0.2750000000000E+00 -0.5395955351400E+01  0.0000000000000E+00
-0.1833333333333E+00 -0.5395955351400E+01  0.0000000000000E+00
-0.9166666666667E-01 -0.5395955351400E+01  0.0000000000000E+00
 0.9166666666667E-01 -0.5395955351400E+01  0.0000000000000E+00
 0.1833333333333E+00 -0.5395955351400E+01  0.0000000000000E+00
 0.2750000000000E+00 -0.5395955351400E+01  0.0000000000000E+00
 0.3666666666667E+00 -0.5395955351400E+01  0.0000000000000E+00
 0.4583333333333E+00 -0.5395955351400E+01  0.0000000000000E+00
 0.5500000000000E+00 -0.5395955351400E+01  0.0000000000000E+00
 0.6416666666667E+00 -0.5395955351400E+01  0.0000000000000E+00
 0.7333333333333E+00 -0.5395955351400E+01  0.0000000000000E+00
 0.8250000000000E+00 -0.5395955351400E+01  0.0000000000000E+00
 0.9166666666667E+00 -0.5395955351400E+01  0.0000000000000E+00
 0.1008333333333E+01 -0.5395955351400E+01  0.0000000000000E+00
-0.1052597566997E+01 -0.2525359163065E+01  0.0000000000000E+00
-0.9576122427306E+00 -0.2503058373331E+01  0.0000000000000E+00
-0.8621760033544E+00 -0.2482774237100E+01  0.0000000000000E+00
-0.7663263414926E+00 -0.2464543622143E+01  0.0000000000000E+00
-0.6701031214270E+00 -0.2448400537052E+01  0.0000000000000E+00
-0.4783892518804E+00 -0.2422684502899E+01  0.0000000000000E+00
-0.3829961397004E+00 -0.2413087472616E+01  0.0000000000000E+00
-0.2874140476292E+00 -0.2405603374330E+01  0.0000000000000E+00
-0.1916891717559E+00 -0.2400246934309E+01  0.0000000000000E+00
-0.9586858937425E-01 -0.2397028784591E+01  0.0000000000000E+00
 0.5546389486577E-08 -0.2395955351400E+01  0.0000000000000E+00
 0.9586860046425E-01 -0.2397028784839E+01  0.0000000000000E+00
 0.1916891828375E+00 -0.2400246934805E+01  0.0000000000000E+00
 0.2874140586971E+00 -0.2405603375073E+01  0.0000000000000E+00
 0.3829961507491E+00 -0.2413087473604E+01  0.0000000000000E+00
 0.4783892629046E+00 -0.2422684504131E+01  0.0000000000000E+00
 0.6701031305598E+00 -0.2448400538481E+01  0.0000000000000E+00
 0.7663263487720E+00 -0.2464543623446E+01  0.0000000000000E+00
 0.8621760087916E+00 -0.2482774238195E+01  0.0000000000000E+00
 0.9576122463390E+00 -0.2503058374138E+01  0.0000000000000E+00
 0.1052597568792E+01 -0.2525359163506E+01  0.0000000000000E+00
-0.1243131161036E+01 -0.2037610559518E+01  0.0000000000000E+00
-0.1406537509160E+01 -0.1543675335298E+01  0.0000000000000E+00
-0.1680144970038E+01 -0.1100774774047E+01  0.0000000000000E+00
-0.1897231924415E+01 -0.6279519832455E+00  0.0000000000000E+00
-0.1998599493545E+01 -0.1184785758543E+00  0.0000000000000E+00
-0.1542600023501E+01  0.4158036957262E+00  0.0000000000000E+00
-0.1231313400754E+01  0.3635443025863E+00  0.0000000000000E+00
-0.9317783393447E+00  0.2612690433592E+00  0.0000000000000E+00
-0.6282763739427E+00  0.1719988208541E+00  0.0000000000000E+00
-0.3159718680769E+00  0.1211633805885E+00  0.0000000000000E+00
-0.6960506046538E-08  0.1040446485997E+00  0.0000000000000E+00
 0.3159718542389E+00  0.1211633791072E+00  0.0000000000000E+00
 0.6282763603577E+00  0.1719988178054E+00  0.0000000000000E+00
 0.9317783262470E+00  0.2612690386552E+00  0.0000000000000E+00
 0.1231313387360E+01  0.3635442987769E+00  0.0000000000000E+00
 0.1542600009557E+01  0.4158036956212E+00  0.0000000000000E+00
 0.1998599493920E+01 -0.1184785639515E+00  0.0000000000000E+00
 0.1897231927146E+01 -0.6279519741738E+00  0.0000000000000E+00
 0.1680144973598E+01 -0.1100774767938E+01  0.0000000000000E+00
 0.1406537511171E+01 -0.1543675331034E+01  0.0000000000000E+00
 0.1243131161584E+01 -0.2037610557226E+01  0.0000000000000E+00
-0.1100000000000E+01 -0.5176863099545E+01  0.0000000000000E+00
-0.1100000000000E+01 -0.4957770754270E+01  0.0000000000000E+00
-0.1100000000000E+01 -0.4738678354999E+01  0.0000000000000E+00
-0.1100000000000E+01 -0.4519585936506E+01  0.0000000000000E+00
-0.1100000000000E+01 -0.4300493542565E+01  0.0000000000000E+00
-0.1100000000000E+01 -0.4081400872064E+01  0.0000000000000E+00
-0.1100000000000E+01 -0.3862308883724E+01  0.0000000000000E+00
-0.1100000000000E+01 -0.3643216671679E+01  0.0000000000000E+00
-0.1100035806624E+01 -0.3424124477674E+01  0.0000000000000E+00
-0.1101937402719E+01 -0.3205043502260E+01  0.0000000000000E+00
-0.1109333708784E+01 -0.2986084852631E+01  0.0000000000000E+00
-0.1124056733736E+01 -0.2767499395959E+01  0.0000000000000E+00
 0.1124056733789E+01 -0.2767499395965E+01  0.0000000000000E+00
 0.1109333708827E+01 -0.2986084852636E+01  0.0000000000000E+00
 0.1101937402735E+01 -0.3205043502263E+01  0.0000000000000E+00
 0.1100035806625E+01 -0.3424124477677E+01  0.0000000000000E+00
 0.1100000000000E+01 -0.3643216671682E+01  0.0000000000000E+00
 0.1100000000000E+01 -0.3862308883726E+01  0.0000000000000E+00
 0.1100000000000E+01 -0.4081400872066E+01  0.0000000000000E+00
 0.1100000000000E+01 -0.4300493542567E+01  0.0000000000000E+00
 0.1100000000000E+01 -0.4519585936507E+01  0.0000000000000E+00
 0.1100000000000E+01 -0.4738678355000E+01  0.0000000000000E+00
 0.1100000000000E+01 -0.4957770754271E+01  0.0000000000000E+00
 0.1100000000000E+01 -0.5176863099545E+01  0.0000000000000E+00
-0.6271906632745E+00 -0.7167047467301E+00  0.0000000000000E+00
-0.5032223282799E+00 -0.6916719656231E+00  0.0000000000000E+00
-0.3782916751723E+00 -0.6719994717132E+00  0.0000000000000E+00
-0.2526175835472E+00 -0.6578358653252E+00  0.0000000000000E+00
-0.1264370694116E+00 -0.6492919818213E+00  0.0000000000000E+00
-0.3330669073875E-15 -0.6464362985620E+00  0.0000000000000E+00
 0.1264370694116E+00 -0.6492919818213E+00  0.0000000000000E+00
 0.2526175835472E+00 -0.6578358653252E+00  0.0000000000000E+00
 0.3782916751723E+00 -0.6719994717132E+00  0.0000000000000E+00
 0.5032223282799E+00 -0.6916719656231E+00  0.0000000000000E+00
 0.6271906632745E+00 -0.7167047467301E+00  0.0000000000000E+00
-0.7422338203668E+00 -0.1030186986488E+01  0.0000000000000E+00
-0.7136730888562E+00 -0.1312070331021E+01  0.0000000000000E+00
-0.6617742279509E+00 -0.1590646529104E+01  0.0000000000000E+00
-0.6098753663230E+00 -0.1869222727060E+01  0.0000000000000E+00
-0.5813146332022E+00 -0.2151106071433E+01  0.0000000000000E+00
 0.7422338203860E+00 -0.1030186986543E+01  0.0000000000000E+00
 0.7136730891148E+00 -0.1312070331158E+01  0.0000000000000E+00
 0.6617742292803E+00 -0.1590646529503E+01  0.0000000000000E+00
 0.6098753701687E+00 -0.1869222727976E+01  0.0000000000000E+00
 0.5813146405079E+00 -0.2151106072751E+01  0.0000000000000E+00
-0.9332588552688E+00 -0.5636583923516E+00  0.0000000000000E+00
-0.1116517710538E+01 -0.3803995389795E+00  0.0000000000000E+00
-0.1299776565806E+01 -0.1971406856075E+00  0.0000000000000E+00
-0.1483035421075E+01 -0.1388183223543E-01  0.0000000000000E+00
-0.1666294276344E+01  0.1693770211366E+00  0.0000000000000E+00
 0.9332588532634E+00 -0.5636583910870E+00  0.0000000000000E+00
 0.1116517706527E+01 -0.3803995364504E+00  0.0000000000000E+00
 0.1299776559790E+01 -0.1971406818138E+00  0.0000000000000E+00
 0.1483035413054E+01 -0.1388182717722E-01  0.0000000000000E+00
 0.1666294266317E+01  0.1693770274594E+00  0.0000000000000E+00
-0.1008418696358E+01 -0.5174995533681E+01  0.0000000000000E+00
-0.1008504059419E+01 -0.4954035621747E+01  0.0000000000000E+00
-0.1008589422501E+01 -0.4733075655355E+01  0.0000000000000E+00
-0.1008674785591E+01 -0.4512115669579E+01  0.0000000000000E+00
-0.1008760148671E+01 -0.4291155708563E+01  0.0000000000000E+00
-0.1008845511858E+01 -0.4070195468630E+01  0.0000000000000E+00
-0.1008930874780E+01 -0.3849235916673E+01  0.0000000000000E+00
-0.1009016237789E+01 -0.3628276139104E+01  0.0000000000000E+00
-0.1009134410119E+01 -0.3407316379703E+01  0.0000000000000E+00
-0.1010962189379E+01 -0.3186367864201E+01  0.0000000000000E+00
-0.1017824725572E+01 -0.2965541723007E+01  0.0000000000000E+00
-0.1031400675063E+01 -0.2745088798625E+01  0.0000000000000E+00
-0.9168000092861E+00 -0.5173280065568E+01  0.0000000000000E+00
-0.9169333519624E+00 -0.4950604684790E+01  0.0000000000000E+00
-0.9170666946716E+00 -0.4727929249131E+01  0.0000000000000E+00
-0.9172000373924E+00 -0.4505253793937E+01  0.0000000000000E+00
-0.9173333800983E+00 -0.4282578363696E+01  0.0000000000000E+00
-0.9174667229726E+00 -0.4059902652372E+01  0.0000000000000E+00
-0.9176000654316E+00 -0.3837227634365E+01  0.0000000000000E+00
-0.9177334080268E+00 -0.3614552388995E+01  0.0000000000000E+00
-0.9178965626411E+00 -0.3391877161911E+01  0.0000000000000E+00
-0.9196131422075E+00 -0.3169213201972E+01  0.0000000000000E+00
-0.9259045267972E+00 -0.2946671660912E+01  0.0000000000000E+00
-0.9382960197803E+00 -0.2724503358577E+01  0.0000000000000E+00
-0.8251466358527E+00 -0.5171719726705E+01  0.0000000000000E+00
[...]
<PointData Vectors="'U'">
<DataArray type="Float64" Name="U" NumberOfComponents="2" ComponentName0="U1" ComponentName1="U2" format="ascii">
-0.9460783283528E-37 -0.2438970210601E-36
 0.1721578207963E-46 -0.2891447915168E-36
 0.9460783168633E-37 -0.2438970179036E-36
-0.1115088668339E-01 -0.2840215393779E-01
-0.4734407806683E-02 -0.1798086725083E-01
 0.4734407525695E-02 -0.1798086718768E-01
 0.1115088630693E-01 -0.2840215368075E-01
-0.3041650006051E+00 -0.4269167453421E+00
 0.3041649873180E+00 -0.4269167414729E+00
-0.3179945286450E+00 -0.5361329158190E+00
 0.3179945217488E+00 -0.5361329134137E+00
-0.4261354597579E-37 -0.3357694663626E-36
-0.4236645273869E-37 -0.3107731476980E-36
-0.3695441274357E-37 -0.3011097925679E-36
-0.3136106358833E-37 -0.2963552900166E-36
-0.2621947895753E-37 -0.2936920739628E-36
-0.2156938372637E-37 -0.2920638402814E-36
-0.1733285659280E-37 -0.2909961805714E-36
-0.1345217388653E-37 -0.2902611806120E-36
-0.9848463782501E-38 -0.2897500721331E-36
-0.6451237859305E-38 -0.2894081285290E-36
-0.3191316705921E-38 -0.2892099145449E-36
 0.3191316737842E-38 -0.2892099142070E-36
 0.6451237883588E-38 -0.2894081278521E-36
 0.9848463793700E-38 -0.2897500711155E-36
 0.1345217387863E-37 -0.2902611792507E-36
 0.1733285655894E-37 -0.2909961788616E-36
 0.2156938365210E-37 -0.2920638382197E-36
 0.2621947884511E-37 -0.2936920715410E-36
 0.3136106342046E-37 -0.2963552872164E-36
 0.3695441250563E-37 -0.3011097893637E-36
 0.4236645241707E-37 -0.3107731440365E-36
 0.4261354561284E-37 -0.3357694620721E-36
-0.9482804948269E-02 -0.2390961393364E-01
-0.8273728110827E-02 -0.2163386595207E-01
-0.7253240225768E-02 -0.2021109201985E-01
-0.6342402326211E-02 -0.1923106472633E-01
-0.5509462324045E-02 -0.1852124868603E-01
-0.4021042726229E-02 -0.1760040911674E-01
-0.3249345685139E-02 -0.1732481258395E-01
-0.2454641881392E-02 -0.1712423653086E-01
-0.1644464278802E-02 -0.1698907541397E-01
-0.8246019976836E-03 -0.1691116644507E-01
-0.1424134555876E-09 -0.1688572345347E-01
 0.8246017129465E-03 -0.1691116643171E-01
 0.1644463994354E-02 -0.1698907538763E-01
 0.2454641597492E-02 -0.1712423649234E-01
 0.3249345402144E-02 -0.1732481253454E-01
 0.4021042444594E-02 -0.1760040905823E-01
 0.5509462030932E-02 -0.1852124860958E-01
 0.6342402020479E-02 -0.1923106463510E-01
 0.7253239907716E-02 -0.2021109191155E-01
 0.8273727779855E-02 -0.2163386582201E-01
 0.9482804601564E-02 -0.2390961376950E-01
-0.3267053250321E+00 -0.2200052063730E+00
-0.4062325753156E+00 -0.3532866150178E+00
-0.4527168436021E+00 -0.4264491649551E+00
-0.4543024265353E+00 -0.4331503039680E+00
-0.4009817401995E+00 -0.4148278640841E+00
-0.2752989142299E+00 -0.4862502490620E+00
-0.2692479633994E+00 -0.5603344568753E+00
-0.2633205386067E+00 -0.6702394526478E+00
-0.2072854165141E+00 -0.8748599740141E+00
-0.1016650205781E+00 -0.1136153895213E+01
-0.6609879351876E-08 -0.1256949572651E+01
 0.1016650063449E+00 -0.1136153903300E+01
 0.2072854023026E+00 -0.8748599818128E+00
 0.2633205267483E+00 -0.6702394550754E+00
 0.2692479523239E+00 -0.5603344560145E+00
 0.2752989024664E+00 -0.4862502466380E+00
 0.4009817288960E+00 -0.4148278575525E+00
 0.4543024179105E+00 -0.4331502975831E+00
 0.4527168374901E+00 -0.4264491599854E+00
 0.4062325711166E+00 -0.3532866118960E+00
 0.3267053228978E+00 -0.2200052045668E+00
-0.8410547109445E-03 -0.1711062304877E-02
-0.1210813646263E-02 -0.3034795723001E-02
-0.1401855753380E-02 -0.4350345094879E-02
-0.1473879359014E-02 -0.5686527107679E-02
-0.1468441545672E-02 -0.7067723201948E-02
-0.1411706851187E-02 -0.8516655584997E-02
-0.1331470719761E-02 -0.1006392836647E-01
-0.1264155457620E-02 -0.1175460854876E-01
-0.1276662222004E-02 -0.1366651305838E-01
-0.1479217503138E-02 -0.1591164214972E-01
-0.2184408416995E-02 -0.1867997531346E-01
-0.3468491125356E-02 -0.2230493411308E-01
 0.3468490815744E-02 -0.2230493388431E-01
 0.2184408154810E-02 -0.1867997510799E-01
 0.1479217280962E-02 -0.1591164196391E-01
 0.1276662036618E-02 -0.1366651288960E-01
 0.1264155305873E-02 -0.1175460839673E-01
 0.1331470598433E-02 -0.1006392823150E-01
 0.1411706756928E-02 -0.8516655467517E-02
 0.1468441475012E-02 -0.7067723102444E-02
 0.1473879308394E-02 -0.5686527026625E-02
 0.1401855719199E-02 -0.4350345032711E-02
 0.1210813625123E-02 -0.3034795680127E-02
 0.8410546997561E-03 -0.1711062281545E-02
-0.2833898549092E+00 -0.5797901460019E+00
-0.2429746562982E+00 -0.6284717958618E+00
-0.1945289808298E+00 -0.6777155600349E+00
-0.1370895051421E+00 -0.7217983607644E+00
-0.7121032815668E-01 -0.7539383400261E+00
-0.3487507647866E-08 -0.7661256357615E+00
 0.7121032121856E-01 -0.7539383397490E+00
 0.1370894982769E+00 -0.7217983600575E+00
 0.1945289740073E+00 -0.6777155588994E+00
 0.2429746494780E+00 -0.6284717943155E+00
 0.2833898480585E+00 -0.5797901440395E+00
-0.3083715928016E+00 -0.4478502644310E+00
-0.2840917206493E+00 -0.3575382517680E+00
-0.2422281769755E+00 -0.2629984230729E+00
-0.1867971974892E+00 -0.1657455665583E+00
-0.1175173412046E+00 -0.7679330669862E-01
 0.3083715868126E+00 -0.4478502624152E+00
 0.2840917159414E+00 -0.3575382501821E+00
 0.2422281737234E+00 -0.2629984219472E+00
 0.1867971958474E+00 -0.1657455658920E+00
 0.1175173409013E+00 -0.7679330650692E-01
-0.3654019132619E+00 -0.5409252100079E+00
-0.3902387508820E+00 -0.5280765784806E+00
-0.3917321970076E+00 -0.5050064681399E+00
-0.3738885453486E+00 -0.4785802515297E+00
-0.3430219696930E+00 -0.4528433468894E+00
 0.3654019051878E+00 -0.5409252074476E+00
 0.3902387417074E+00 -0.5280765756641E+00
 0.3917321867508E+00 -0.5050064649901E+00
 0.3738885340232E+00 -0.4785802480446E+00
 0.3430219573766E+00 -0.4528433431618E+00
-0.6715500905128E-03 -0.1500107670594E-02
-0.1081006519789E-02 -0.2955169774257E-02
-0.1264392306812E-02 -0.4329784294871E-02
-0.1332654114744E-02 -0.5713746769700E-02
-0.1319294432286E-02 -0.7130855906678E-02
-0.1252782664358E-02 -0.8605753804364E-02
-0.1160080976108E-02 -0.1016665805095E-01
-0.1079604876212E-02 -0.1185244179146E-01
-0.1074464720597E-02 -0.1371667362383E-01
-0.1294924987446E-02 -0.1581697097034E-01
-0.1914229354372E-02 -0.1827437109308E-01
-0.3964764648433E-02 -0.2084103365541E-01
-0.5498697288111E-03 -0.1419340006032E-02
-0.9394418411817E-03 -0.2879607593465E-02
-0.1126477203256E-02 -0.4306302977615E-02
-0.1189274690897E-02 -0.5725167598174E-02
-0.1170023906379E-02 -0.7168149450951E-02
-0.1095522720844E-02 -0.8656004428851E-02
-0.9936832437520E-03 -0.1021221088363E-01
-0.9035747703639E-03 -0.1186456241479E-01
-0.9005684409101E-03 -0.1363723314836E-01
-0.1123749144017E-02 -0.1555830805353E-01
-0.1878283925601E-02 -0.1754489462165E-01
-0.4181632376192E-02 -0.1942329714811E-01
-0.4566532262118E-03 -0.1382059105568E-02
-0.8059605304803E-03 -0.2830173031881E-02
-0.9880402138073E-03 -0.4280272063384E-02
-0.1047033017561E-02 -0.5724674769852E-02
-0.1023135564561E-02 -0.7182904345061E-02
-0.9436750598559E-03 -0.8671984385022E-02
-0.8368106888750E-03 -0.1020796516113E-01
-0.7456825459912E-03 -0.1180457748023E-01
-0.7513318467577E-03 -0.1346692720521E-01
-0.1012614693263E-02 -0.1516790422211E-01
-0.1911993023997E-02 -0.1678860253677E-01
-0.4138669711441E-02 -0.1834942447812E-01
-0.3807647861828E-03 -0.1363341923238E-02
-0.6844902673530E-03 -0.2798745941509E-02
-0.8532490099881E-03 -0.4256351080494E-02
-0.9077981173998E-03 -0.5714772719624E-02
-0.8811163955191E-03 -0.7179314051671E-02
-0.7999976130898E-03 -0.8659724867349E-02
-0.6934633689975E-03 -0.1016355802936E-01
-0.6080147139484E-03 -0.1169273934417E-01
-0.6316479491193E-03 -0.1323370218798E-01
-0.9451815136734E-03 -0.1473434224626E-01
-0.1912601572338E-02 -0.1612931495148E-01
-0.3916414931226E-02 -0.1754616509744E-01
-0.3162035484899E-03 -0.1353499833748E-02
-0.5745427517029E-03 -0.2778246198470E-02
-0.7246993335538E-03 -0.4235364881141E-02
-0.7734363163518E-03 -0.5698533008153E-02
-0.7457218270016E-03 -0.7161798021799E-02
-0.6665164496121E-03 -0.8626147290513E-02
-0.5653356076383E-03 -0.1009078134089E-01
-0.4910881432042E-03 -0.1154782278211E-01
-0.5378490619302E-03 -0.1297257236651E-01
-0.8899437414959E-03 -0.1431967816086E-01
-0.1844872516615E-02 -0.1558737707534E-01
-0.3576447977884E-02 -0.1693741826436E-01
-0.2595462964611E-03 -0.1348138648098E-02
-0.4745897973016E-03 -0.2764263498447E-02
-0.6034359910926E-03 -0.4217023034036E-02
-0.6452533078099E-03 -0.5678635428263E-02
-0.6180797682181E-03 -0.7134977034331E-02
-0.5441793256371E-03 -0.8578683103308E-02
-0.4525977537020E-03 -0.1000140671717E-01
-0.3930882322552E-03 -0.1138841092034E-01
-0.4603770784641E-03 -0.1271367982982E-01
-0.8242248381660E-03 -0.1395375232455E-01
-0.1705219224986E-02 -0.1515155164144E-01
-0.3159286565144E-02 -0.1647288537129E-01
-0.2087143281860E-03 -0.1345026080869E-02
-0.3832076217854E-03 -0.2754134461212E-02
-0.4899383430221E-03 -0.4200885683210E-02
-0.5244747046004E-03 -0.5657252735379E-02
-0.4994241608508E-03 -0.7103345691909E-02
-0.4338558755271E-03 -0.8524795135450E-02
-0.3550993172884E-03 -0.9907181818057E-02
-0.3111110554806E-03 -0.1123241474964E-01
-0.3905905623869E-03 -0.1248017414229E-01
-0.7373181639830E-03 -0.1365023201717E-01
-0.1507781549183E-02 -0.1481285629018E-01
-0.2691927124595E-02 -0.1611334810885E-01
-0.1622194205572E-03 -0.1343176747375E-02
-0.2986035733995E-03 -0.2746663091836E-02
-0.3831343951277E-03 -0.4187137286410E-02
-0.4102752675741E-03 -0.5636651549995E-02
-0.3885856422073E-03 -0.7071258920162E-02
-0.3336647596547E-03 -0.8471091206433E-02
-0.2697216328940E-03 -0.9817274953723E-02
-0.2398371225744E-03 -0.1109113629487E-01
-0.3206248141682E-03 -0.1228095057536E-01
-0.6260206345299E-03 -0.1340593226364E-01
-0.1259961800438E-02 -0.1455018531610E-01
-0.2198423373409E-02 -0.1583605999116E-01
-0.1189671809386E-03 -0.1342035866466E-02
-0.2193362078076E-03 -0.2741159913116E-02
-0.2820514498241E-03 -0.4175964652963E-02
-0.3019848687486E-03 -0.5618599805553E-02
-0.2847190158524E-03 -0.7042314988326E-02
-0.2421806473158E-03 -0.8423223404552E-02
-0.1940492349699E-03 -0.9739534443056E-02
-0.1755053531353E-03 -0.1097366022735E-01
-0.2469111916011E-03 -0.1212241402980E-01
-0.4914759657409E-03 -0.1321942147781E-01
-0.9760324595905E-03 -0.1435308546104E-01
-0.1675104294847E-02 -0.1563508527137E-01
-0.7804849636745E-04 -0.1341332401826E-02
-0.1440333948357E-03 -0.2737318185233E-02
-0.1854569479430E-03 -0.4167666365368E-02
-0.1984952425210E-03 -0.5604573726205E-02
-0.1864960081923E-03 -0.7019452862862E-02
-0.1575365378435E-03 -0.8385731173979E-02
-0.1255131544092E-03 -0.9679928915313E-02
-0.1152796909970E-03 -0.1088606869212E-01
-0.1682259260160E-03 -0.1200786751888E-01
-0.3383997015257E-03 -0.1308804149569E-01
-0.6653630690158E-03 -0.1421666546985E-01
-0.1129250349659E-02 -0.1549837094549E-01
-0.3864899976239E-04 -0.1340942742433E-02
-0.7136060426810E-04 -0.2735028557227E-02
-0.9194473494405E-04 -0.4162542489189E-02
-0.9837874863568E-04 -0.5595691401687E-02
-0.9223007090724E-04 -0.7004845779069E-02
-0.7757947051863E-04 -0.8361910033002E-02
-0.6161920575084E-04 -0.9642571661864E-02
-0.5719667867224E-04 -0.1083216570330E-01
-0.8530413868687E-04 -0.1193873840489E-01
-0.1724773022937E-03 -0.1301001340802E-01
-0.3370632064418E-03 -0.1413657140539E-01
-0.5683668329060E-03 -0.1541897734497E-01
-0.1181030972456E-11 -0.1340817130593E-02
-0.4937764214576E-11 -0.2734265977465E-02
-0.1110773717063E-10 -0.4160808590794E-02
-0.1964553439115E-10 -0.5592651383241E-02
-0.3055122881134E-10 -0.6999827055195E-02
-0.4379234288917E-10 -0.8353748267957E-02
-0.5919749521342E-10 -0.9629858156314E-02
-0.7626838421954E-10 -0.1081398501179E-01
-0.9392112181347E-10 -0.1191564029294E-01
-0.1103689837075E-09 -0.1298414298952E-01
-0.1236881728843E-09 -0.1411016737536E-01
-0.1334991690955E-09 -0.1539294168805E-01
 0.3864899737021E-04 -0.1340942740755E-02
 0.7136059434778E-04 -0.2735028553823E-02
 0.9194471268764E-04 -0.4162542484078E-02
 0.9837870932398E-04 -0.5595691394963E-02
 0.9223000981906E-04 -0.7004845770915E-02
 0.7757938299274E-04 -0.8361910023711E-02
 0.6161908745047E-04 -0.9642571651839E-02
 0.5719652621610E-04 -0.1083216569296E-01
 0.8530395081196E-04 -0.1193873839443E-01
 0.1724770813219E-03 -0.1301001339727E-01
 0.3370629586995E-03 -0.1413657139389E-01
 0.5683665656845E-03 -0.1541897733249E-01
 0.7804849388371E-04 -0.1341332398468E-02
 0.1440333847793E-03 -0.2737318178418E-02
 0.1854569255619E-03 -0.4167666355132E-02
 0.1984952031449E-03 -0.5604573712731E-02
 0.1864959471435E-03 -0.7019452846505E-02
 0.1575364504908E-03 -0.8385731155316E-02
 0.1255130363945E-03 -0.9679928895148E-02
 0.1152795387965E-03 -0.1088606867132E-01
 0.1682257380691E-03 -0.1200786749793E-01
 0.3383994798713E-03 -0.1308804147428E-01
 0.6653628201619E-03 -0.1421666544705E-01
 0.1129250081743E-02 -0.1549837092082E-01
 0.1189671782982E-03 -0.1342035861423E-02
 0.2193361975193E-03 -0.2741159902877E-02
 0.2820514272292E-03 -0.4175964637578E-02
 0.3019848292566E-03 -0.5618599785281E-02
 0.2847189548576E-03 -0.7042314963673E-02
 0.2421805602409E-03 -0.8423223376356E-02
 0.1940491174353E-03 -0.9739534412518E-02
 0.1755052014044E-03 -0.1097366019584E-01
 0.2469110036218E-03 -0.1212241399824E-01
 0.4914757430181E-03 -0.1321942144591E-01
 0.9760322088417E-03 -0.1435308542738E-01
 0.1675104025682E-02 -0.1563508523511E-01
 0.1622194176883E-03 -0.1343176740639E-02
 0.2986035627749E-03 -0.2746663078153E-02
 0.3831343722208E-03 -0.4187137265838E-02
 0.4102752279026E-03 -0.5636651522854E-02
 0.3885855812641E-03 -0.7071258887081E-02
 0.3336646729437E-03 -0.8471091168471E-02
 0.2697215160330E-03 -0.9817274912457E-02
 0.2398369715845E-03 -0.1109113625225E-01
 0.3206246263289E-03 -0.1228095053296E-01
 0.6260204104791E-03 -0.1340593222141E-01
 0.1259961546969E-02 -0.1455018527225E-01
 0.2198423102279E-02 -0.1583605994430E-01
 0.2087143250068E-03 -0.1345026072427E-02
 0.3832076107091E-03 -0.2754134444056E-02
 0.4899383196930E-03 -0.4200885657405E-02
 0.5244746646691E-03 -0.5657252701283E-02
 0.4994240999334E-03 -0.7103345650235E-02
 0.4338557892378E-03 -0.8524795087426E-02
 0.3550992012811E-03 -0.9907181765588E-02
 0.3111109055599E-03 -0.1123241469528E-01
 0.3905903750549E-03 -0.1248017408856E-01
 0.7373179385448E-03 -0.1365023196475E-01
 0.1507781292186E-02 -0.1481285623692E-01
 0.2691926850490E-02 -0.1611334805303E-01
 0.2595462928744E-03 -0.1348138637929E-02
 0.4745897856436E-03 -0.2764263477783E-02
 0.6034359672160E-03 -0.4217023002943E-02
 0.6452532675185E-03 -0.5678635387114E-02
 0.6180797072716E-03 -0.7134976983879E-02
 0.5441792397891E-03 -0.8578683044883E-02
 0.4525976386924E-03 -0.1000140665292E-01
 0.3930880837649E-03 -0.1138841085339E-01
 0.4603768922306E-03 -0.1271367976390E-01
 0.8242246116777E-03 -0.1395375226180E-01
 0.1705218963548E-02 -0.1515155157983E-01
 0.3159286287227E-02 -0.1647288530821E-01
 0.3162035443319E-03 -0.1353499821935E-02
 0.5745427390423E-03 -0.2778246174429E-02
 0.7246993084500E-03 -0.4235364844914E-02
 0.7734362747947E-03 -0.5698532960081E-02
 0.7457217649431E-03 -0.7161797962562E-02
 0.6665163630115E-03 -0.8626147221305E-02
 0.5653354924383E-03 -0.1009078126367E-01
 0.4910879952090E-03 -0.1154782269991E-01
 0.5378488765281E-03 -0.1297257228366E-01
 0.8899435141050E-03 -0.1431967808140E-01
 0.1844872248512E-02 -0.1558737699869E-01
 0.3576447687531E-02 -0.1693741818716E-01
 0.3807647813037E-03 -0.1363341909762E-02
 0.6844902534776E-03 -0.2798745914062E-02
 0.8532489834431E-03 -0.4256351039133E-02
 0.9077980743677E-03 -0.5714772664685E-02
 0.8811163321186E-03 -0.7179313983755E-02
 0.7999975254575E-03 -0.8659724787456E-02
 0.6934632532805E-03 -0.1016355793912E-01
 0.6080145661821E-03 -0.1169273924620E-01
 0.6316477648693E-03 -0.1323370208654E-01
 0.9451812872276E-03 -0.1473434214714E-01
 0.1912601300040E-02 -0.1612931485706E-01
 0.3916414628902E-02 -0.1754616500414E-01
 0.4566532204094E-03 -0.1382059090362E-02
 0.8059605151392E-03 -0.2830173000937E-02
 0.9880401856024E-03 -0.4280272016866E-02
 0.1047032972853E-02 -0.5724674708139E-02
 0.1023135499593E-02 -0.7182904268681E-02
 0.9436749708972E-03 -0.8671984294763E-02
 0.8368105722528E-03 -0.1020796505822E-01
 0.7456823979812E-03 -0.1180457736668E-01
 0.7513316633913E-03 -0.1346692708437E-01
 0.1012614469207E-02 -0.1516790410016E-01
 0.1911992751244E-02 -0.1678860242026E-01
 0.4138669398238E-02 -0.1834942436521E-01
 0.5498697217898E-03 -0.1419339988922E-02
 0.9394418240888E-03 -0.2879607558828E-02
 0.1126477173194E-02 -0.4306302925893E-02
 0.1189274644339E-02 -0.5725167529820E-02
 0.1170023839645E-02 -0.7168149366427E-02
 0.1095522630291E-02 -0.8656004328761E-02
 0.9936831258276E-03 -0.1021221076881E-01
 0.9035746215677E-03 -0.1186456228655E-01
 0.9005682576101E-03 -0.1363723300889E-01
 0.1123748922338E-02 -0.1555830790688E-01
 0.1878283656775E-02 -0.1754489447681E-01
 0.4181632055382E-02 -0.1942329700909E-01
 0.6715500818003E-03 -0.1500107651135E-02
 0.1081006500675E-02 -0.2955169735571E-02
 0.1264392274755E-02 -0.4329784237927E-02
 0.1332654066196E-02 -0.5713746694882E-02
 0.1319294363635E-02 -0.7130855814424E-02
 0.1252782572008E-02 -0.8605753695159E-02
 0.1160080856565E-02 -0.1016665792536E-01
 0.1079604726099E-02 -0.1185244165018E-01
 0.1074464536580E-02 -0.1371667346798E-01
 0.1294924766183E-02 -0.1581697080120E-01
 0.1914229091536E-02 -0.1827437091475E-01
 0.3964764327577E-02 -0.2084103347703E-01
-0.1001483212124E+00 -0.7512297666070E-01
-0.1603077959754E+00 -0.1649738197177E+00
-0.2094796013608E+00 -0.2685899666278E+00
-0.2476628842737E+00 -0.3743321447258E+00
-0.2715458750883E+00 -0.4789263574462E+00
-0.8176623361529E-01 -0.7319124396238E-01
-0.1315853499895E+00 -0.1655388837843E+00
-0.1728519074172E+00 -0.2751223155306E+00
-0.2060588498275E+00 -0.3913764702230E+00
-0.2288940502382E+00 -0.5102614881227E+00
-0.6235616145106E-01 -0.7178745183497E-01
-0.1007548210331E+00 -0.1664363841564E+00
-0.1329081846584E+00 -0.2814875993904E+00
-0.1597069522998E+00 -0.4072187638548E+00
-0.1798271667206E+00 -0.5402688004758E+00
-0.4208796262828E-01 -0.7083166672666E-01
-0.6819291137020E-01 -0.1673264664727E+00
-0.9025023758602E-01 -0.2867079941566E+00
-0.1091794075628E+00 -0.4202784763502E+00
-0.1244525678065E+00 -0.5657805615106E+00
-0.2120408974067E-01 -0.7027665475191E-01
-0.3441150187602E-01 -0.1679511922107E+00
-0.4563854945411E-01 -0.2901214544374E+00
-0.5546168633999E-01 -0.4289208161817E+00
-0.6380052063618E-01 -0.5833107346627E+00
 0.7555213718159E-10 -0.7009422243989E-01
-0.5830306108207E-09 -0.1681739329009E+00
-0.1463832399461E-08 -0.2913068763580E+00
-0.2243986830361E-08 -0.4319485509052E+00
-0.2902949555560E-08 -0.5896470263795E+00
 0.2120408987695E-01 -0.7027665472321E-01
 0.3441150069412E-01 -0.1679511920822E+00
 0.4563854651518E-01 -0.2901214542363E+00
 0.5546168184349E-01 -0.4289208159169E+00
 0.6380051483292E-01 -0.5833107343398E+00
 0.4208796272095E-01 -0.7083166666980E-01
 0.6819291014165E-01 -0.1673264662186E+00
 0.9025023461443E-01 -0.2867079937581E+00
 0.1091794030422E+00 -0.4202784758253E+00
 0.1244525619966E+00 -0.5657805608471E+00
 0.6235616147392E-01 -0.7178745175121E-01
 0.1007548197295E+00 -0.1664363837822E+00
 0.1329081816360E+00 -0.2814875987998E+00
 0.1597069477423E+00 -0.4072187630748E+00
 0.1798271608852E+00 -0.5402687994806E+00
 0.8176623354632E-01 -0.7319124385388E-01
 0.1315853485865E+00 -0.1655388832974E+00
 0.1728519043298E+00 -0.2751223147532E+00
 0.2060588452247E+00 -0.3913764691883E+00
 0.2288940443631E+00 -0.5102614868015E+00
 0.1001483210352E+00 -0.7512297652977E-01
 0.1603077944534E+00 -0.1649738191275E+00
 0.2094795981987E+00 -0.2685899656684E+00
 0.2476628796189E+00 -0.3743321434328E+00
 0.2715458691628E+00 -0.4789263557808E+00
-0.2943416268149E+00 -0.1728653961713E+00
-0.3861245794302E+00 -0.3179001300499E+00
-0.4428236550074E+00 -0.4006255517949E+00
-0.4576792718374E+00 -0.4315149826874E+00
-0.4228566493578E+00 -0.4335150868220E+00
-0.2586171749088E+00 -0.1440550983951E+00
-0.3576684568774E+00 -0.2813319609095E+00
-0.4229139598501E+00 -0.3744521163390E+00
-0.4500065596475E+00 -0.4239095480396E+00
-0.4335753245592E+00 -0.4474499709591E+00
-0.2225486177616E+00 -0.1225126087613E+00