<VTKFile type="UnstructuredGrid" version="1,0" byte_order="LittleEndian">
<UnstructuredGrid>
<Piece NumberOfPoints="566" NumberOfCells="528">
<Points>
<DataArray type="Float64" NumberOfComponents="3" format="ascii">
-0.1200000000000E+01 -0.4500000000000E+01  0.0000000000000E+00
 0.0000000000000E+00 -0.4500000000000E+01  0.0000000000000E+00
 0.1200000000000E+01 -0.4500000000000E+01  0.0000000000000E+00
-0.1449029376496E+01 -0.1194133125621E+01  0.0000000000000E+00
-0.7245146813042E+00 -0.1048533280475E+01  0.0000000000000E+00
 0.7245146951927E+00 -0.1048533282336E+01  0.0000000000000E+00
 0.1449029376496E+01 -0.1194133125621E+01  0.0000000000000E+00
-0.1636858596770E+01  0.5972048417008E+00  0.0000000000000E+00
 0.1636858596719E+01  0.5972048417935E+00  0.0000000000000E+00
-0.9000000002171E+00  0.1038988058458E+00  0.0000000000000E+00
 0.9000000002171E+00  0.1038988058458E+00  0.0000000000000E+00
-0.1100000000000E+01 -0.4500000000000E+01  0.0000000000000E+00
-0.1000000000000E+01 -0.4500000000000E+01  0.0000000000000E+00
-0.9000000000000E+00 -0.4500000000000E+01  0.0000000000000E+00
-0.8000000000000E+00 -0.4500000000000E+01  0.0000000000000E+00
-0.7000000000000E+00 -0.4500000000000E+01  0.0000000000000E+00
-0.6000000000000E+00 -0.4500000000000E+01  0.0000000000000E+00
-0.5000000000000E+00 -0.4500000000000E+01  0.0000000000000E+00
-0.4000000000000E+00 -0.4500000000000E+01  0.0000000000000E+00
-0.3000000000000E+00 -0.4500000000000E+01  0.0000000000000E+00
-0.2000000000000E+00 -0.4500000000000E+01  0.0000000000000E+00
-0.1000000000000E+00 -0.4500000000000E+01  0.0000000000000E+00
 0.1000000000000E+00 -0.4500000000000E+01  0.0000000000000E+00
 0.2000000000000E+00 -0.4500000000000E+01  0.0000000000000E+00
 0.3000000000000E+00 -0.4500000000000E+01  0.0000000000000E+00
 0.4000000000000E+00 -0.4500000000000E+01  0.0000000000000E+00
 0.5000000000000E+00 -0.4500000000000E+01  0.0000000000000E+00
 0.6000000000000E+00 -0.4500000000000E+01  0.0000000000000E+00
 0.7000000000000E+00 -0.4500000000000E+01  0.0000000000000E+00
 0.8000000000000E+00 -0.4500000000000E+01  0.0000000000000E+00
 0.9000000000000E+00 -0.4500000000000E+01  0.0000000000000E+00
 0.1000000000000E+01 -0.4500000000000E+01  0.0000000000000E+00
 0.1100000000000E+01 -0.4500000000000E+01  0.0000000000000E+00
-0.1329656437025E+01 -0.1163464762365E+01  0.0000000000000E+00
-0.1209669604646E+01 -0.1135294082943E+01  0.0000000000000E+00
-0.1089113169793E+01 -0.1109670869329E+01  0.0000000000000E+00
-0.9680344936903E+00 -0.1086641693422E+01  0.0000000000000E+00
-0.8464839334734E+00 -0.1066249515369E+01  0.0000000000000E+00
-0.6043082067738E+00 -0.1033764649911E+01  0.0000000000000E+00
-0.4838062508176E+00 -0.1021641542759E+01  0.0000000000000E+00
-0.3630655727354E+00 -0.1012187521799E+01  0.0000000000000E+00
-0.2421445280939E+00 -0.1005421189464E+01  0.0000000000000E+00
-0.1211025856099E+00 -0.1001355976297E+01  0.0000000000000E+00
 0.7006279167943E-08 -0.1000000000000E+01  0.0000000000000E+00
 0.1211025996189E+00 -0.1001355976611E+01  0.0000000000000E+00
 0.2421445420924E+00 -0.1005421190090E+01  0.0000000000000E+00
 0.3630655867165E+00 -0.1012187522738E+01  0.0000000000000E+00
 0.4838062647744E+00 -0.1021641544008E+01  0.0000000000000E+00
 0.6043082206997E+00 -0.1033764651467E+01  0.0000000000000E+00
 0.8464839450101E+00 -0.1066249517175E+01  0.0000000000000E+00
 0.9680345028859E+00 -0.1086641695068E+01  0.0000000000000E+00
 0.1089113176662E+01 -0.1109670870712E+01  0.0000000000000E+00
 0.1209669609205E+01 -0.1135294083963E+01  0.0000000000000E+00
 0.1329656439293E+01 -0.1163464762923E+01  0.0000000000000E+00
-0.1633970086954E+01 -0.9365843800459E+00  0.0000000000000E+00
-0.1740568588835E+01 -0.6382988888924E+00  0.0000000000000E+00
-0.1789219221747E+01 -0.3247470389795E+00  0.0000000000000E+00
-0.1799998917174E+01 -0.7481859115273E-02  0.0000000000000E+00
-0.1763032195486E+01  0.3067610869093E+00  0.0000000000000E+00
-0.1438701544237E+01  0.8559643705434E+00  0.0000000000000E+00
-0.1199123756627E+01  0.1076770676070E+01  0.0000000000000E+00
-0.9258085254598E+00  0.1254639912712E+01  0.0000000000000E+00
-0.6366434628754E+00  0.1405203107479E+01  0.0000000000000E+00
-0.3242853635231E+00  0.1497747204822E+01  0.0000000000000E+00
-0.5242444812014E-10  0.1529422863469E+01  0.0000000000000E+00
 0.3242853634202E+00  0.1497747204842E+01  0.0000000000000E+00
 0.6366434627785E+00  0.1405203107519E+01  0.0000000000000E+00
 0.9258085253691E+00  0.1254639912765E+01  0.0000000000000E+00
 0.1199123756544E+01  0.1076770676133E+01  0.0000000000000E+00
 0.1438701544168E+01  0.8559643706226E+00  0.0000000000000E+00
 0.1763032195466E+01  0.3067610870086E+00  0.0000000000000E+00
 0.1799998917183E+01 -0.7481859018016E-02  0.0000000000000E+00
 0.1789219221721E+01 -0.3247470388865E+00  0.0000000000000E+00
 0.1740568588707E+01 -0.6382988887895E+00  0.0000000000000E+00
 0.1633970086825E+01 -0.9365843799552E+00  0.0000000000000E+00
-0.1200000000000E+01 -0.4243064409647E+01  0.0000000000000E+00
-0.1200000000000E+01 -0.3986128340496E+01  0.0000000000000E+00
-0.1200000000000E+01 -0.3729192467058E+01  0.0000000000000E+00
-0.1200000000000E+01 -0.3472256417482E+01  0.0000000000000E+00
-0.1200000000000E+01 -0.3215320409462E+01  0.0000000000000E+00
-0.1200000000000E+01 -0.2958384983411E+01  0.0000000000000E+00
-0.1200095697161E+01 -0.2701449452193E+01  0.0000000000000E+00
-0.1204338762609E+01 -0.2444559744307E+01  0.0000000000000E+00
-0.1218544071879E+01 -0.2188037078468E+01  0.0000000000000E+00
-0.1244730248174E+01 -0.1932467258751E+01  0.0000000000000E+00
-0.1286370089476E+01 -0.1678982200840E+01  0.0000000000000E+00
-0.1348526271975E+01 -0.1429784265175E+01  0.0000000000000E+00
 0.1348526272104E+01 -0.1429784265253E+01  0.0000000000000E+00
 0.1286370089541E+01 -0.1678982200902E+01  0.0000000000000E+00
 0.1244730248193E+01 -0.1932467258800E+01  0.0000000000000E+00
 0.1218544071883E+01 -0.2188037078511E+01  0.0000000000000E+00
 0.1204338762611E+01 -0.2444559744344E+01  0.0000000000000E+00
 0.1200095697162E+01 -0.2701449452226E+01  0.0000000000000E+00
 0.1200000000000E+01 -0.2958384983439E+01  0.0000000000000E+00
 0.1200000000000E+01 -0.3215320409485E+01  0.0000000000000E+00
 0.1200000000000E+01 -0.3472256417500E+01  0.0000000000000E+00
 0.1200000000000E+01 -0.3729192467072E+01  0.0000000000000E+00
 0.1200000000000E+01 -0.3986128340505E+01  0.0000000000000E+00
 0.1200000000000E+01 -0.4243064409652E+01  0.0000000000000E+00
-0.7545302259220E+00  0.1516828161088E+00  0.0000000000000E+00
-0.6067179635815E+00  0.1916296996744E+00  0.0000000000000E+00
-0.4569081785440E+00  0.2232644425063E+00  0.0000000000000E+00
-0.3055205522992E+00  0.2461797008265E+00  0.0000000000000E+00
-0.1530400097263E+00  0.2600615158822E+00  0.0000000000000E+00
-0.4440892098501E-15  0.2647114317343E+00  0.0000000000000E+00
 0.1530400097263E+00  0.2600615158822E+00  0.0000000000000E+00
 0.3055205522992E+00  0.2461797008265E+00  0.0000000000000E+00
 0.4569081785440E+00  0.2232644425063E+00  0.0000000000000E+00
 0.6067179635815E+00  0.1916296996744E+00  0.0000000000000E+00
 0.7545302259220E+00  0.1516828161088E+00  0.0000000000000E+00
-0.8921442967918E+00 -0.9107715503533E-01  0.0000000000000E+00
-0.8634513629173E+00 -0.2840200885178E+00  0.0000000000000E+00
-0.8122573433775E+00 -0.4723172376207E+00  0.0000000000000E+00
-0.7610633229675E+00 -0.6606143864994E+00  0.0000000000000E+00
-0.7323703870691E+00 -0.8535573196875E+00  0.0000000000000E+00
 0.8921442968242E+00 -0.9107715499903E-01  0.0000000000000E+00
 0.8634513632840E+00 -0.2840200884987E+00  0.0000000000000E+00
 0.8122573450876E+00 -0.4723172379386E+00  0.0000000000000E+00
 0.7610633277615E+00 -0.6606143876027E+00  0.0000000000000E+00
 0.7323703962456E+00 -0.8535573213969E+00  0.0000000000000E+00
-0.1022809766309E+01  0.1861164784883E+00  0.0000000000000E+00
-0.1145619532401E+01  0.2683341511308E+00  0.0000000000000E+00
-0.1268429298493E+01  0.3505518237733E+00  0.0000000000000E+00
-0.1391239064586E+01  0.4327694964158E+00  0.0000000000000E+00
-0.1514048830678E+01  0.5149871690583E+00  0.0000000000000E+00
 0.1022809766301E+01  0.1861164785038E+00  0.0000000000000E+00
 0.1145619532384E+01  0.2683341511617E+00  0.0000000000000E+00
 0.1268429298468E+01  0.3505518238197E+00  0.0000000000000E+00
 0.1391239064551E+01  0.4327694964776E+00  0.0000000000000E+00
 0.1514048830635E+01  0.5149871691356E+00  0.0000000000000E+00
-0.1100113834805E+01 -0.4240704626036E+01  0.0000000000000E+00
-0.1100227669822E+01 -0.3981408768876E+01  0.0000000000000E+00
-0.1100341504752E+01 -0.3722113109227E+01  0.0000000000000E+00
-0.1100455339761E+01 -0.3462817271822E+01  0.0000000000000E+00
-0.1100569174751E+01 -0.3203521476355E+01  0.0000000000000E+00
-0.1100683009483E+01 -0.2944226268202E+01  0.0000000000000E+00
-0.1100884528271E+01 -0.2684930953752E+01  0.0000000000000E+00
-0.1104886132483E+01 -0.2425681561844E+01  0.0000000000000E+00
-0.1118015792360E+01 -0.2166799295216E+01  0.0000000000000E+00
-0.1142123103116E+01 -0.1908869946572E+01  0.0000000000000E+00
-0.1180390061682E+01 -0.1653025593863E+01  0.0000000000000E+00
-0.1237455412522E+01 -0.1401468820168E+01  0.0000000000000E+00
-0.1000180432907E+01 -0.4238537027228E+01  0.0000000000000E+00
-0.1000360866151E+01 -0.3977073567222E+01  0.0000000000000E+00
-0.1000541299256E+01 -0.3715610306377E+01  0.0000000000000E+00
-0.1000721732486E+01 -0.3454146866291E+01  0.0000000000000E+00
-0.1000902165687E+01 -0.3192683468493E+01  0.0000000000000E+00
-0.1001082598478E+01 -0.2931220662919E+01  0.0000000000000E+00
-0.1001342702200E+01 -0.2669757750010E+01  0.0000000000000E+00
-0.1005055610598E+01 -0.2408340850773E+01  0.0000000000000E+00
-0.1017062388472E+01 -0.2147291153271E+01  0.0000000000000E+00
-0.1039043602884E+01 -0.1887194439762E+01  0.0000000000000E+00
-0.1073890453065E+01 -0.1629182937248E+01  0.0000000000000E+00
-0.1125817756369E+01 -0.1375459433319E+01  0.0000000000000E+00
-0.9002032021265E+00 -0.4236565443709E+01  0.0000000000000E+00
[...]
<PointData Vectors="'U'">
<DataArray type="Float32" Name="U" NumberOfComponents="2" ComponentName0="U1" ComponentName1="U2" format="ascii">
-0.1564116333611E-02 -0.1482079845573E-36
 0.1401803165209E-03 -0.3022383306027E-36
 0.1844476908445E-02 -0.1482079845573E-36
-0.1097262464464E-01 -0.3377276659012E-01
-0.5944888107479E-02 -0.1900366134942E-01
 0.6225248798728E-02 -0.1900366134942E-01
 0.1125298533589E-01 -0.3377276659012E-01
-0.4338361918926E+00 -0.2621138989925E+00
 0.4341165423393E+00 -0.2621138989925E+00
-0.3650595843792E+00 -0.3145530223846E+00
 0.3653399646282E+00 -0.3145530223846E+00
-0.1421593595296E-02 -0.2976914870288E-36
-0.1278563868254E-02 -0.2988197901315E-36
-0.1135302823968E-02 -0.2997717089939E-36
-0.9920044103637E-03 -0.3005443737567E-36
-0.8489018073305E-03 -0.3011357217086E-36
-0.7061670185067E-03 -0.3015661333346E-36
-0.5639218143187E-03 -0.3018597782304E-36
-0.4222226270940E-03 -0.3020453549886E-36
-0.2810594742186E-03 -0.3021524141913E-36
-0.1403597998433E-03 -0.3022076141404E-36
 0.0000000000000E+00 -0.3022317837363E-36
 0.2803606330417E-03 -0.3022317837363E-36
 0.4207204037812E-03 -0.3022076141404E-36
 0.5614201072603E-03 -0.3021524141913E-36
 0.7025832310319E-03 -0.3020453549886E-36
 0.8442823891528E-03 -0.3018597782304E-36
 0.9865276515484E-03 -0.3015661333346E-36
 0.1129262498580E-02 -0.3011357217086E-36
 0.1272364985198E-02 -0.3005443737567E-36
 0.1415663398802E-02 -0.2997717089939E-36
 0.1558924443088E-02 -0.2988197901315E-36
 0.1701954170130E-02 -0.2976914870288E-36
-0.1088297553360E-01 -0.2738222666085E-01
-0.1005249656737E-01 -0.2407629601657E-01
-0.8998331613839E-02 -0.2199136652052E-01
-0.7981668226421E-02 -0.2060699276626E-01
-0.6957971956581E-02 -0.1965991593897E-01
-0.4942556843162E-02 -0.1856286637485E-01
-0.3938396461308E-02 -0.1826206408441E-01
-0.2927588764578E-02 -0.1806325837970E-01
-0.1909704878926E-02 -0.1793893426657E-01
-0.8863671682775E-03 -0.1787122897804E-01
 0.1401803747285E-03 -0.1784982904792E-01
 0.1166727975942E-02 -0.1787122897804E-01
 0.2190065570176E-02 -0.1793893426657E-01
 0.3207949455827E-02 -0.1806325837970E-01
 0.4218757618219E-02 -0.1826206594706E-01
 0.5222917534411E-02 -0.1856286637485E-01
 0.7238333113492E-02 -0.1965991593897E-01
 0.8262028917670E-02 -0.2060699276626E-01
 0.9278692305088E-02 -0.2199136652052E-01
 0.1033285725862E-01 -0.2407629601657E-01
 0.1116333622485E-01 -0.2738222666085E-01
-0.2305419147015E+00 -0.2417229264975E+00
-0.3288515210152E+00 -0.2801776826382E+00
-0.4153291881084E+00 -0.2787042260170E+00
-0.4488165378571E+00 -0.2752124369144E+00
-0.4569272994995E+00 -0.2618333697319E+00
-0.3869666457176E+00 -0.2844845950603E+00
-0.3136473894119E+00 -0.3492442965508E+00
-0.2202068865299E+00 -0.4814646542072E+00
-0.8166579157114E-01 -0.7747735381126E+00
 0.7776030804962E-02 -0.1122161269188E+01
 0.1401804765919E-03 -0.1257794499397E+01
-0.7495669648051E-02 -0.1122161269188E+01
 0.8194615691900E-01 -0.7747735381126E+00
 0.2204872369766E+00 -0.4814646542072E+00
 0.3139277398586E+00 -0.3492442965508E+00
 0.3872469961643E+00 -0.2844845950603E+00
 0.4572076797485E+00 -0.2618333697319E+00
 0.4490969181061E+00 -0.2752124369144E+00
 0.4156095385551E+00 -0.2787042260170E+00
 0.3291319012642E+00 -0.2801776826382E+00
 0.2308222800493E+00 -0.2417229264975E+00
-0.1555515686050E-02 -0.1462781336159E-02
-0.1528221997432E-02 -0.2927851630375E-02
-0.1478612190112E-02 -0.4399668890983E-02
-0.1400639535859E-02 -0.5887233186513E-02
-0.1289872918278E-02 -0.7408205419779E-02
-0.1140533247963E-02 -0.8993173018098E-02
-0.9670035215095E-03 -0.1070992462337E-01
-0.8052578778006E-03 -0.1264692097902E-01
-0.7890333654359E-03 -0.1489022374153E-01
-0.9850738570094E-03 -0.1752746291459E-01
-0.1906118122861E-02 -0.2078858949244E-01
-0.3231904236600E-02 -0.2527566812932E-01
 0.3512264927849E-02 -0.2527566812932E-01
 0.2186478814110E-02 -0.2078858949244E-01
 0.1265434431843E-02 -0.1752746291459E-01
 0.1069394056685E-02 -0.1489022374153E-01
 0.1085618510842E-02 -0.1264692097902E-01
 0.1247364096344E-02 -0.1070992462337E-01
 0.1420893822797E-02 -0.8993173018098E-02
 0.1570233493112E-02 -0.7408205419779E-02
 0.1681000110693E-02 -0.5887233186513E-02
 0.1758972881362E-02 -0.4399668890983E-02
 0.1808582572266E-02 -0.2927851630375E-02
 0.1835876377299E-02 -0.1462781336159E-02
-0.3285571336746E+00 -0.3547624647617E+00
-0.2808333933353E+00 -0.3981319963932E+00
-0.2223589271307E+00 -0.4395788908005E+00
-0.1541716158390E+00 -0.4737215042114E+00
-0.7893080264330E-01 -0.4961126148701E+00
 0.1401804183843E-03 -0.5039442777634E+00
 0.7921116054058E-01 -0.4961126148701E+00
 0.1544519811869E+00 -0.4737215042114E+00
 0.2226392924786E+00 -0.4395788908005E+00
 0.2811137437820E+00 -0.3981319963932E+00
 0.3288374841213E+00 -0.3547624647617E+00
-0.3384081125259E+00 -0.2583118677139E+00
-0.2961127460003E+00 -0.2017687559128E+00
-0.2395602911711E+00 -0.1471414417028E+00
-0.1735432446003E+00 -0.9529659897089E-01
-0.9884627908468E-01 -0.5146302282810E-01
 0.3386884927750E+00 -0.2583118677139E+00
 0.2963931262493E+00 -0.2017687559128E+00
 0.2398406565189E+00 -0.1471414417028E+00
 0.1738236099482E+00 -0.9529659897089E-01
 0.9912663698196E-01 -0.5146302282810E-01
-0.4017008841038E+00 -0.3158386051655E+00
-0.4268184900284E+00 -0.3094476461411E+00
-0.4428062438965E+00 -0.2997350692749E+00
-0.4463450610638E+00 -0.2869921922684E+00
-0.4445084929466E+00 -0.2733600735664E+00
 0.4019812345505E+00 -0.3158386051655E+00
 0.4270988702774E+00 -0.3094476461411E+00
 0.4430865943432E+00 -0.2997350692749E+00
 0.4466254115105E+00 -0.2869921922684E+00
 0.4447888433933E+00 -0.2733600735664E+00
-0.1412852318026E-02 -0.1482682884671E-02
-0.1384896575473E-02 -0.2968439366668E-02
-0.1333269057795E-02 -0.4462333861738E-02
-0.1252041896805E-02 -0.5973676685244E-02
-0.1133740879595E-02 -0.7519321050495E-02
-0.9756634244695E-03 -0.9129013866186E-02
-0.7812565891072E-03 -0.1085014268756E-01
-0.6174235604703E-03 -0.1273221615702E-01
-0.5625604535453E-03 -0.1483335718513E-01
-0.8646819624119E-03 -0.1718394830823E-01
-0.1636597327888E-02 -0.1995732821524E-01
-0.3957006148994E-02 -0.2297609858215E-01
-0.1269736909308E-02 -0.1500662998296E-02
-0.1241044141352E-02 -0.3004578640684E-02
-0.1187946530990E-02 -0.4516632296145E-02
-0.1103308633901E-02 -0.6045367103070E-02
-0.9801402920857E-03 -0.7605159655213E-02
-0.8123483858071E-03 -0.9219587780535E-02
-0.6149527034722E-03 -0.1091460231692E-01
-0.4425206861924E-03 -0.1271948963404E-01
-0.4180787946098E-03 -0.1464677695185E-01
-0.7379879825749E-03 -0.1673033274710E-01
-0.1680819084868E-02 -0.1890091225505E-01
-0.4521558526903E-02 -0.2101925946772E-01
-0.1126384129748E-02 -0.1516514923424E-02
-0.1097369706258E-02 -0.3035873640329E-02
-0.1043311320245E-02 -0.4562184680253E-02
-0.9570225956850E-03 -0.6102039013058E-02
-0.8304422372021E-03 -0.7666265126318E-02
-0.6603019428439E-03 -0.9268434718251E-02
-0.4640532133635E-03 -0.1092081516981E-01
-0.3029941872228E-03 -0.1262807101011E-01
-0.3093146369793E-03 -0.1439000200480E-01
-0.6750535685569E-03 -0.1619148068130E-01
-0.1833486952819E-02 -0.1790494658053E-01
-0.4697403404862E-02 -0.1962003670633E-01
-0.9831456700340E-03 -0.1530140638351E-02
-0.9542959742248E-03 -0.3062262665480E-02
-0.9004758903757E-03 -0.4599039442837E-02
-0.8143285522237E-03 -0.6144577637315E-02
-0.6881829467602E-03 -0.7704504765570E-02
-0.5211399402469E-03 -0.9283685125411E-02
-0.3339237009641E-03 -0.1088134944439E-01
-0.1936717162607E-03 -0.1248778216541E-01
-0.2315903693670E-03 -0.1409120019525E-01
-0.6628888659179E-03 -0.1564549282193E-01
-0.1942060189322E-02 -0.1708535663784E-01
-0.4550108220428E-02 -0.1860847324133E-01
-0.8402718231082E-03 -0.1541567267850E-02
-0.8122983272187E-03 -0.3083877731115E-02
-0.7601066026837E-03 -0.4627802874893E-02
-0.6765613215975E-03 -0.6174358539283E-02
-0.5549546331167E-03 -0.7723791990429E-02
-0.3965551150031E-03 -0.9273025207222E-02
-0.2251100377180E-03 -0.1081121992320E-01
-0.1096469277400E-03 -0.1232067029923E-01
-0.1792981638573E-03 -0.1378065906465E-01
-0.6646222900599E-03 -0.1515010278672E-01
-0.1939890556969E-02 -0.1644167676568E-01
-0.4213442094624E-02 -0.1787083037198E-01
-0.6979830795899E-03 -0.1550895394757E-02
-0.6716917268932E-03 -0.3101068083197E-02
-0.6227128906175E-03 -0.4649348091334E-02
-0.5444846465252E-03 -0.6193448323756E-02
-0.4315330006648E-03 -0.7728504948318E-02
-0.2869023010135E-03 -0.9244613349438E-02
-0.1361196336802E-03 -0.1072408165783E-01
-0.4605552021530E-04 -0.1214493438601E-01
-0.1433289289707E-03 -0.1348529011011E-01
-0.6455785478465E-03 -0.1472975686193E-01
-0.1830083201639E-02 -0.1594613492489E-01
-0.3744901623577E-02 -0.1733386144042E-01
-0.5566288600676E-03 -0.1558181480505E-02
-0.5330709973350E-03 -0.3114091930911E-02
-0.4891341086477E-03 -0.4664476960897E-02
-0.4191011539660E-03 -0.6203882396221E-02
-0.3187218972016E-03 -0.7722934707999E-02
-0.1923001109390E-03 -0.9206358343363E-02
-0.6494965055026E-04 -0.1063228212297E-01
 0.9726609278005E-06 -0.1197747327387E-01
-0.1120676752180E-03 -0.1322649512440E-01
-0.5921426345594E-03 -0.1439285092056E-01
-0.1629520673305E-02 -0.1557643245906E-01
-0.3199788974598E-02 -0.1695057190955E-01
-0.4160527023487E-03 -0.1563768950291E-02
-0.3960441681556E-03 -0.3123775823042E-02
-0.3587158862501E-03 -0.4674800205976E-02
-0.2993601665366E-03 -0.6208545528352E-02
-0.2148952189600E-03 -0.7711837999523E-02
-0.1100733861676E-03 -0.9165371768177E-02
-0.7776196071063E-05 -0.1054484862834E-01
 0.3717069193954E-04 -0.1182827167213E-01
-0.7710201316513E-04 -0.1301025412977E-01
-0.5002138786949E-03 -0.1412934157997E-01
-0.1356887398288E-02 -0.1530148927122E-01
-0.2592905657366E-02 -0.1667663268745E-01
-0.2762231742963E-03 -0.1567857922055E-02
-0.2604993933346E-03 -0.3130645491183E-02
-0.2311674616067E-03 -0.4681451246142E-02
-0.1846395607572E-03 -0.6209619343281E-02
-0.1188386013382E-03 -0.7698994595557E-02
-0.3817711331067E-04 -0.9127395227551E-02
 0.3842867590720E-04 -0.1046936772764E-01
 0.6662504165433E-04 -0.1170555502176E-01
-0.3403453229112E-04 -0.1284102909267E-01
-0.3733927733265E-03 -0.1393287442625E-01
-0.1028610742651E-02 -0.1510439813137E-01
-0.1943329814821E-02 -0.1648617163301E-01
-0.1370314130327E-03 -0.1570630585775E-02
-0.1261927827727E-03 -0.3135173814371E-02
-0.1059792120941E-03 -0.4685421939939E-02
-0.7397895387840E-04 -0.6208960898221E-02
-0.2893915916502E-04 -0.7687507662922E-02
 0.2576979932201E-04 -0.9096983820200E-02
 0.7663315045647E-04 -0.1041155122221E-01
 0.9245346154785E-04 -0.1161476131529E-01
 0.1790899477783E-04 -0.1272022817284E-01
-0.2184607437812E-03 -0.1379743684083E-01
-0.6603809888475E-03 -0.1497224625200E-01
-0.1264311606064E-02 -0.1636177487671E-01
 0.1696426465969E-05 -0.1572231994942E-02
 0.7225500667118E-05 -0.3137731924653E-02
 0.1753457763698E-04 -0.4687480162829E-02
 0.3383376679267E-04 -0.6207979749888E-02
 0.5670601603924E-04 -0.7679674774408E-02
 0.8433234324912E-04 -0.9077417664230E-02
 0.1096683772630E-03 -0.1037533953786E-01
 0.1166155416286E-03 -0.1155915483832E-01
 0.7705514144618E-04 -0.1264795102179E-01
-0.4408081804286E-04 -0.1371819805354E-01
-0.2664170751814E-03 -0.1489632949233E-01
-0.5665792850778E-03 -0.1629164256155E-01
 0.1401803165209E-03 -0.1572755048983E-02
 0.1401803165209E-03 -0.3138557542115E-02
 0.1401803165209E-03 -0.4688111133873E-02
 0.1401803165209E-03 -0.6207553204149E-02
 0.1401803165209E-03 -0.7676905952394E-02
 0.1401803165209E-03 -0.9070675820112E-02
 0.1401803165209E-03 -0.1036302000284E-01
 0.1401803165209E-03 -0.1154044270515E-01
 0.1401803165209E-03 -0.1262390986085E-01
 0.1401803165209E-03 -0.1369212567806E-01
 0.1401803310728E-03 -0.1487158332020E-01
 0.1401803601766E-03 -0.1626898907125E-01
 0.2786641998682E-03 -0.1572231994942E-02
 0.2731351123657E-03 -0.3137731924653E-02
 0.2628260408528E-03 -0.4687480162829E-02
 0.2465268480591E-03 -0.6207979749888E-02
 0.2236546133645E-03 -0.7679674774408E-02
 0.1960282825166E-03 -0.9077417664230E-02
 0.1706922485027E-03 -0.1037533953786E-01
 0.1637450914131E-03 -0.1155915483832E-01
 0.2033054915955E-03 -0.1264795102179E-01
 0.3244414692745E-03 -0.1371819805354E-01
 0.5467777373269E-03 -0.1489632949233E-01
 0.8469400345348E-03 -0.1629164256155E-01
 0.4173920315225E-03 -0.1570630585775E-02
 0.4065533867106E-03 -0.3135173814371E-02
 0.3863398451358E-03 -0.4685421939939E-02
 0.3543395723682E-03 -0.6208960898221E-02
 0.3092997940257E-03 -0.7687507662922E-02
 0.2545908209868E-03 -0.9096983820200E-02
 0.2037274825852E-03 -0.1041155122221E-01
 0.1879071642179E-03 -0.1161476131529E-01
 0.2624516491778E-03 -0.1272022817284E-01
 0.4988213768229E-03 -0.1379743684083E-01
 0.9407416218892E-03 -0.1497224625200E-01
 0.1544672297314E-02 -0.1636177487671E-01
 0.5565838073380E-03 -0.1567857922055E-02
 0.5408599972725E-03 -0.3130645491183E-02
 0.5115281092003E-03 -0.4681451246142E-02
 0.4650001937989E-03 -0.6209619343281E-02
 0.3991992271040E-03 -0.7698994595557E-02
 0.3185377281625E-03 -0.9127395227551E-02
 0.2419319498586E-03 -0.1046936772764E-01
 0.2137355768355E-03 -0.1170555502176E-01
 0.3143951762468E-03 -0.1284102909267E-01
 0.6537534063682E-03 -0.1393287442625E-01
 0.1308971433900E-02 -0.1510439813137E-01
 0.2223690506071E-02 -0.1648617163301E-01
 0.6964133353904E-03 -0.1563768950291E-02
 0.6764048011974E-03 -0.3123775823042E-02
 0.6390765192918E-03 -0.4674800205976E-02
 0.5797207704745E-03 -0.6208545528352E-02
 0.4952558665536E-03 -0.7711837999523E-02
 0.3904340264853E-03 -0.9165371768177E-02
 0.2881368272938E-03 -0.1054484862834E-01
 0.2431899338262E-03 -0.1182827167213E-01
 0.3574626462068E-03 -0.1301025412977E-01
 0.7805745117366E-03 -0.1412934157997E-01
 0.1637248089537E-02 -0.1530148927122E-01
 0.2873266348615E-02 -0.1667663455009E-01
 0.8369894931093E-03 -0.1558181480505E-02
 0.8134315721691E-03 -0.3114091930911E-02
 0.7694947416894E-03 -0.4664476960897E-02
 0.6994617870077E-03 -0.6203882396221E-02
 0.5990825011395E-03 -0.7722934707999E-02
 0.4726607294288E-03 -0.9206358343363E-02
 0.3453102835920E-03 -0.1063228212297E-01
 0.2793879539240E-03 -0.1197747327387E-01
 0.3924283082597E-03 -0.1322649512440E-01
 0.8725032676011E-03 -0.1439285092056E-01
 0.1909881364554E-02 -0.1557643245906E-01
 0.3480149665847E-02 -0.1695057190955E-01
 0.9783437708393E-03 -0.1550895394757E-02
 0.9520523599349E-03 -0.3101068083197E-02
 0.9030735236593E-03 -0.4649348091334E-02
 0.8248452795669E-03 -0.6193448323756E-02
 0.7118936628103E-03 -0.7728504948318E-02
 0.5672629340552E-03 -0.9244613349438E-02
 0.4164802667219E-03 -0.1072408165783E-01
 0.3264161350671E-03 -0.1214493438601E-01
 0.4236895474605E-03 -0.1348529011011E-01
 0.9259391808882E-03 -0.1472975686193E-01
 0.2110443776473E-02 -0.1594613492489E-01
 0.4025262314826E-02 -0.1733386144042E-01
 0.1120632514358E-02 -0.1541567267850E-02
 0.1092658960260E-02 -0.3083877731115E-02
 0.1040467293933E-02 -0.4627802874893E-02
 0.9569218964316E-03 -0.6174358539283E-02
 0.8353152661584E-03 -0.7723791990429E-02
 0.6769157480448E-03 -0.9273025207222E-02
 0.5054706707597E-03 -0.1081121992320E-01
 0.3900075680576E-03 -0.1232067029923E-01
 0.4596587968990E-03 -0.1378065906465E-01
 0.9449829231016E-03 -0.1515010278672E-01
 0.2220251131803E-02 -0.1644167676568E-01
 0.4493802785873E-02 -0.1787083037198E-01
 0.1263506361283E-02 -0.1530140638351E-02
 0.1234656549059E-02 -0.3062262665480E-02
 0.1180836465210E-02 -0.4599039442837E-02
 0.1094689127058E-02 -0.6144577637315E-02
 0.9685435798019E-03 -0.7704504765570E-02
 0.8015005732886E-03 -0.9283685125411E-02
 0.6142843049020E-03 -0.1088134944439E-01
 0.4740323347505E-03 -0.1248778216541E-01
 0.5119509878568E-03 -0.1409120019525E-01
 0.9432494989596E-03 -0.1564549282193E-01
 0.2222420880571E-02 -0.1708535663784E-01
 0.4830468911678E-02 -0.1860847324133E-01
 0.1406744704582E-02 -0.1516514923424E-02
 0.1377730397508E-02 -0.3035873640329E-02
 0.1323671895079E-02 -0.4562184680253E-02
 0.1237383228727E-02 -0.6102039013058E-02
 0.1110802870244E-02 -0.7666265126318E-02
 0.9406625758857E-03 -0.9268434718251E-02
 0.7444138755091E-03 -0.1092081516981E-01
 0.5833547911607E-03 -0.1262807101011E-01
 0.5896752700210E-03 -0.1439000200480E-01
 0.9554142015986E-03 -0.1619148068130E-01
 0.2113847527653E-02 -0.1790494658053E-01
 0.4977764096111E-02 -0.1962003670633E-01
 0.1550097484142E-02 -0.1500662998296E-02
 0.1521404832602E-02 -0.3004578640684E-02
 0.1468307105824E-02 -0.4516632296145E-02
 0.1383669208735E-02 -0.6045367103070E-02
 0.1260500983335E-02 -0.7605159655213E-02
 0.1092709018849E-02 -0.9219587780535E-02
 0.8953133365139E-03 -0.1091460231692E-01
 0.7228812901303E-03 -0.1271948963404E-01
 0.6984394276515E-03 -0.1464677695185E-01
 0.1018348615617E-02 -0.1673033274710E-01
 0.1961179543287E-02 -0.1890091411769E-01
 0.4801918752491E-02 -0.2101925946772E-01
 0.1693212892860E-02 -0.1482682884671E-02
 0.1665257150307E-02 -0.2968439366668E-02
 0.1613629749045E-02 -0.4462333861738E-02
 0.1532402588055E-02 -0.5973676685244E-02
 0.1414101454429E-02 -0.7519321050495E-02
 0.1256023999304E-02 -0.9129013866186E-02
 0.1061617163941E-02 -0.1085014268756E-01
 0.8977841935121E-03 -0.1273221615702E-01
 0.8429210865870E-03 -0.1483335718513E-01
 0.1145042595454E-02 -0.1718394830823E-01
 0.1916958019137E-02 -0.1995732821524E-01
 0.4237366840243E-02 -0.2297609858215E-01
-0.8871782571077E-01 -0.5121553689241E-01
-0.1543537974358E+00 -0.9884022176266E-01
-0.2124107033014E+00 -0.1558975875378E+00
-0.2633502781391E+00 -0.2184300422668E+00
-0.3019075095654E+00 -0.2852284014225E+00
-0.7548667490482E-01 -0.5117850005627E-01
-0.1303980797529E+00 -0.1025868803263E+00
-0.1791812479496E+00 -0.1657193899155E+00
-0.2225546091795E+00 -0.2365536838770E+00
-0.2565739452839E+00 -0.3145396411419E+00
-0.5941628292203E-01 -0.5119245499372E-01
-0.1021132767200E+00 -0.1062194034457E+00
-0.1401382237673E+00 -0.1750428676605E+00
-0.1745476275682E+00 -0.2539515793324E+00
-0.2020215243101E+00 -0.3427227735519E+00
-0.4099226370454E-01 -0.5125382915139E-01
-0.7019226998091E-01 -0.1092032566667E+00
-0.9631920605898E-01 -0.1827173680067E+00
-0.1201896369457E+00 -0.2683794200420E+00
-0.1395997554064E+00 -0.3660322725773E+00
-0.2086768299341E-01 -0.5131037160754E-01
-0.3570201992989E-01 -0.1111586391926E+00
-0.4899705573916E-01 -0.1877709925175E+00
-0.6125245615840E-01 -0.2778743505478E+00
-0.7126911729574E-01 -0.3814173638821E+00
 0.1401811605319E-03 -0.5132695659995E-01
 0.1401810586685E-03 -0.1118478327990E+00
 0.1401806948707E-03 -0.1895200163126E+00
 0.1401804765919E-03 -0.2812072634697E+00
 0.1401804038323E-03 -0.3867567777634E+00
 0.2114804647863E-01 -0.5131037160754E-01
 0.3598238155246E-01 -0.1111586391926E+00
 0.4927741736174E-01 -0.1877709925175E+00
 0.6153281405568E-01 -0.2778743505478E+00
 0.7154948264360E-01 -0.3814173638821E+00
 0.4127262532711E-01 -0.5125382915139E-01
 0.7047263532877E-01 -0.1092032566667E+00
 0.9659957140684E-01 -0.1827173680067E+00
 0.1204699948430E+00 -0.2683794200420E+00
 0.1398801207542E+00 -0.3660322725773E+00
 0.5969664826989E-01 -0.5119245499372E-01
 0.1023936420679E+00 -0.1062194034457E+00
 0.1404185742140E+00 -0.1750428676605E+00
 0.1748279929161E+00 -0.2539515793324E+00
 0.2023018896580E+00 -0.3427227735519E+00
 0.7576704025269E-01 -0.5117850005627E-01
 0.1306784451008E+00 -0.1025868803263E+00
 0.1794616132975E+00 -0.1657193899155E+00
 0.2228349745274E+00 -0.2365536838770E+00
 0.2568543255329E+00 -0.3145396411419E+00
 0.8899818360806E-01 -0.5121553689241E-01
 0.1546341627836E+00 -0.9884022176266E-01
 0.2126910686493E+00 -0.1558975875378E+00
 0.2636306583881E+00 -0.2184300422668E+00
 0.3021878600121E+00 -0.2852284014225E+00
-0.2043392360210E+00 -0.1286986321211E+00
-0.3397937417030E+00 -0.2327380925417E+00
-0.4031943380833E+00 -0.2523266375065E+00
-0.4497248828411E+00 -0.2629198133945E+00
-0.4575631618500E+00 -0.2657314836979E+00
-0.1756978780031E+00 -0.9425121545792E-01
-0.3140451908112E+00 -0.1680218279362E+00
-0.3944996595383E+00 -0.2267540693283E+00
-0.4350390136242E+00 -0.2496150285006E+00
-0.4555449485779E+00 -0.2679365277290E+00
-0.1554115414619E+00 -0.7342140376568E-01