<VTKFile type="UnstructuredGrid" version="1,0" byte_order="LittleEndian">
<UnstructuredGrid>
<Piece NumberOfPoints="566" NumberOfCells="528">
<Points>
<DataArray type="Float64" NumberOfComponents="3" format="ascii">
-0.1100000000000E+01 -0.5395955351400E+01  0.0000000000000E+00
 0.0000000000000E+00 -0.5395955351400E+01  0.0000000000000E+00
 0.1100000000000E+01 -0.5395955351400E+01  0.0000000000000E+00
-0.1147096914462E+01 -0.2549637197335E+01  0.0000000000000E+00
-0.5735484517343E+00 -0.2434375812148E+01  0.0000000000000E+00
 0.5735484627289E+00 -0.2434375813621E+01  0.0000000000000E+00
 0.1147096914462E+01 -0.2549637197335E+01  0.0000000000000E+00
-0.1849553131613E+01  0.3526358745087E+00  0.0000000000000E+00
 0.1849553119580E+01  0.3526358820960E+00  0.0000000000000E+00
-0.7500000000000E+00 -0.7469172457236E+00  0.0000000000000E+00
 0.7500000000000E+00 -0.7469172457236E+00  0.0000000000000E+00
-0.1008333333333E+01 -0.5395955351400E+01  0.0000000000000E+00
-0.9166666666667E+00 -0.5395955351400E+01  0.0000000000000E+00
-0.8250000000000E+00 -0.5395955351400E+01  0.0000000000000E+00
-0.7333333333333E+00 -0.5395955351400E+01  0.0000000000000E+00
-0.6416666666667E+00 -0.5395955351400E+01  0.0000000000000E+00
-0.5500000000000E+00 -0.5395955351400E+01  0.0000000000000E+00
-0.4583333333333E+00 -0.5395955351400E+01  0.0000000000000E+00
-0.3666666666667E+00 -0.5395955351400E+01  0.0000000000000E+00
-0.2750000000000E+00 -0.5395955351400E+01  0.0000000000000E+00
-0.1833333333333E+00 -0.5395955351400E+01  0.0000000000000E+00
-0.9166666666667E-01 -0.5395955351400E+01  0.0000000000000E+00
 0.9166666666667E-01 -0.5395955351400E+01  0.0000000000000E+00
 0.1833333333333E+00 -0.5395955351400E+01  0.0000000000000E+00
 0.2750000000000E+00 -0.5395955351400E+01  0.0000000000000E+00
 0.3666666666667E+00 -0.5395955351400E+01  0.0000000000000E+00
 0.4583333333333E+00 -0.5395955351400E+01  0.0000000000000E+00
 0.5500000000000E+00 -0.5395955351400E+01  0.0000000000000E+00
 0.6416666666667E+00 -0.5395955351400E+01  0.0000000000000E+00
 0.7333333333333E+00 -0.5395955351400E+01  0.0000000000000E+00
 0.8250000000000E+00 -0.5395955351400E+01  0.0000000000000E+00
 0.9166666666667E+00 -0.5395955351400E+01  0.0000000000000E+00
 0.1008333333333E+01 -0.5395955351400E+01  0.0000000000000E+00
-0.1052597566997E+01 -0.2525359163065E+01  0.0000000000000E+00
-0.9576122427306E+00 -0.2503058373331E+01  0.0000000000000E+00
-0.8621760033544E+00 -0.2482774237100E+01  0.0000000000000E+00
-0.7663263414926E+00 -0.2464543622143E+01  0.0000000000000E+00
-0.6701031214270E+00 -0.2448400537052E+01  0.0000000000000E+00
-0.4783892518804E+00 -0.2422684502899E+01  0.0000000000000E+00
-0.3829961397004E+00 -0.2413087472616E+01  0.0000000000000E+00
-0.2874140476292E+00 -0.2405603374330E+01  0.0000000000000E+00
-0.1916891717559E+00 -0.2400246934309E+01  0.0000000000000E+00
-0.9586858937425E-01 -0.2397028784591E+01  0.0000000000000E+00
 0.5546389486577E-08 -0.2395955351400E+01  0.0000000000000E+00
 0.9586860046425E-01 -0.2397028784839E+01  0.0000000000000E+00
 0.1916891828375E+00 -0.2400246934805E+01  0.0000000000000E+00
 0.2874140586971E+00 -0.2405603375073E+01  0.0000000000000E+00
 0.3829961507491E+00 -0.2413087473604E+01  0.0000000000000E+00
 0.4783892629046E+00 -0.2422684504131E+01  0.0000000000000E+00
 0.6701031305598E+00 -0.2448400538481E+01  0.0000000000000E+00
 0.7663263487720E+00 -0.2464543623446E+01  0.0000000000000E+00
 0.8621760087916E+00 -0.2482774238195E+01  0.0000000000000E+00
 0.9576122463390E+00 -0.2503058374138E+01  0.0000000000000E+00
 0.1052597568792E+01 -0.2525359163506E+01  0.0000000000000E+00
-0.1243131161036E+01 -0.2037610559518E+01  0.0000000000000E+00
-0.1406537509160E+01 -0.1543675335298E+01  0.0000000000000E+00
-0.1680144970038E+01 -0.1100774774047E+01  0.0000000000000E+00
-0.1897231924415E+01 -0.6279519832455E+00  0.0000000000000E+00
-0.1998599493545E+01 -0.1184785758543E+00  0.0000000000000E+00
-0.1542600023501E+01  0.4158036957262E+00  0.0000000000000E+00
-0.1231313400754E+01  0.3635443025863E+00  0.0000000000000E+00
-0.9317783393447E+00  0.2612690433592E+00  0.0000000000000E+00
-0.6282763739427E+00  0.1719988208541E+00  0.0000000000000E+00
-0.3159718680769E+00  0.1211633805885E+00  0.0000000000000E+00
-0.6960505408160E-08  0.1040446485997E+00  0.0000000000000E+00
 0.3159718542389E+00  0.1211633791072E+00  0.0000000000000E+00
 0.6282763603577E+00  0.1719988178054E+00  0.0000000000000E+00
 0.9317783262470E+00  0.2612690386552E+00  0.0000000000000E+00
 0.1231313387360E+01  0.3635442987769E+00  0.0000000000000E+00
 0.1542600009557E+01  0.4158036956212E+00  0.0000000000000E+00
 0.1998599493920E+01 -0.1184785639515E+00  0.0000000000000E+00
 0.1897231927146E+01 -0.6279519741738E+00  0.0000000000000E+00
 0.1680144973598E+01 -0.1100774767938E+01  0.0000000000000E+00
 0.1406537511171E+01 -0.1543675331034E+01  0.0000000000000E+00
 0.1243131161584E+01 -0.2037610557226E+01  0.0000000000000E+00
-0.1100000000000E+01 -0.5176863099544E+01  0.0000000000000E+00
-0.1100000000000E+01 -0.4957770754270E+01  0.0000000000000E+00
-0.1100000000000E+01 -0.4738678354999E+01  0.0000000000000E+00
-0.1100000000000E+01 -0.4519585936506E+01  0.0000000000000E+00
-0.1100000000000E+01 -0.4300493542565E+01  0.0000000000000E+00
-0.1100000000000E+01 -0.4081400872064E+01  0.0000000000000E+00
-0.1100000000000E+01 -0.3862308883724E+01  0.0000000000000E+00
-0.1100000000000E+01 -0.3643216671679E+01  0.0000000000000E+00
-0.1100035806624E+01 -0.3424124477674E+01  0.0000000000000E+00
-0.1101937402719E+01 -0.3205043502260E+01  0.0000000000000E+00
-0.1109333708784E+01 -0.2986084852631E+01  0.0000000000000E+00
-0.1124056733736E+01 -0.2767499395959E+01  0.0000000000000E+00
 0.1124056733789E+01 -0.2767499395965E+01  0.0000000000000E+00
 0.1109333708827E+01 -0.2986084852636E+01  0.0000000000000E+00
 0.1101937402735E+01 -0.3205043502263E+01  0.0000000000000E+00
 0.1100035806625E+01 -0.3424124477677E+01  0.0000000000000E+00
 0.1100000000000E+01 -0.3643216671682E+01  0.0000000000000E+00
 0.1100000000000E+01 -0.3862308883726E+01  0.0000000000000E+00
 0.1100000000000E+01 -0.4081400872066E+01  0.0000000000000E+00
 0.1100000000000E+01 -0.4300493542567E+01  0.0000000000000E+00
 0.1100000000000E+01 -0.4519585936507E+01  0.0000000000000E+00
 0.1100000000000E+01 -0.4738678355000E+01  0.0000000000000E+00
 0.1100000000000E+01 -0.4957770754271E+01  0.0000000000000E+00
 0.1100000000000E+01 -0.5176863099545E+01  0.0000000000000E+00
-0.6271906632745E+00 -0.7167047467301E+00  0.0000000000000E+00
-0.5032223282799E+00 -0.6916719656231E+00  0.0000000000000E+00
-0.3782916751723E+00 -0.6719994717132E+00  0.0000000000000E+00
-0.2526175835472E+00 -0.6578358653252E+00  0.0000000000000E+00
-0.1264370694116E+00 -0.6492919818213E+00  0.0000000000000E+00
-0.3330669073875E-15 -0.6464362985620E+00  0.0000000000000E+00
 0.1264370694116E+00 -0.6492919818213E+00  0.0000000000000E+00
 0.2526175835472E+00 -0.6578358653252E+00  0.0000000000000E+00
 0.3782916751723E+00 -0.6719994717132E+00  0.0000000000000E+00
 0.5032223282799E+00 -0.6916719656231E+00  0.0000000000000E+00
 0.6271906632745E+00 -0.7167047467301E+00  0.0000000000000E+00
-0.7422338203668E+00 -0.1030186986488E+01  0.0000000000000E+00
-0.7136730888562E+00 -0.1312070331021E+01  0.0000000000000E+00
-0.6617742279509E+00 -0.1590646529104E+01  0.0000000000000E+00
-0.6098753663230E+00 -0.1869222727060E+01  0.0000000000000E+00
-0.5813146332022E+00 -0.2151106071433E+01  0.0000000000000E+00
 0.7422338203860E+00 -0.1030186986543E+01  0.0000000000000E+00
 0.7136730891148E+00 -0.1312070331158E+01  0.0000000000000E+00
 0.6617742292803E+00 -0.1590646529503E+01  0.0000000000000E+00
 0.6098753701687E+00 -0.1869222727976E+01  0.0000000000000E+00
 0.5813146405079E+00 -0.2151106072751E+01  0.0000000000000E+00
-0.9332588552688E+00 -0.5636583923516E+00  0.0000000000000E+00
-0.1116517710538E+01 -0.3803995389795E+00  0.0000000000000E+00
-0.1299776565806E+01 -0.1971406856075E+00  0.0000000000000E+00
-0.1483035421075E+01 -0.1388183223543E-01  0.0000000000000E+00
-0.1666294276344E+01  0.1693770211366E+00  0.0000000000000E+00
 0.9332588532634E+00 -0.5636583910870E+00  0.0000000000000E+00
 0.1116517706527E+01 -0.3803995364504E+00  0.0000000000000E+00
 0.1299776559790E+01 -0.1971406818138E+00  0.0000000000000E+00
 0.1483035413054E+01 -0.1388182717722E-01  0.0000000000000E+00
 0.1666294266317E+01  0.1693770274594E+00  0.0000000000000E+00
-0.1008418696358E+01 -0.5174995533681E+01  0.0000000000000E+00
-0.1008504059419E+01 -0.4954035621747E+01  0.0000000000000E+00
-0.1008589422501E+01 -0.4733075655355E+01  0.0000000000000E+00
-0.1008674785591E+01 -0.4512115669579E+01  0.0000000000000E+00
-0.1008760148671E+01 -0.4291155708563E+01  0.0000000000000E+00
-0.1008845511858E+01 -0.4070195468630E+01  0.0000000000000E+00
-0.1008930874780E+01 -0.3849235916673E+01  0.0000000000000E+00
-0.1009016237789E+01 -0.3628276139104E+01  0.0000000000000E+00
-0.1009134410119E+01 -0.3407316379703E+01  0.0000000000000E+00
-0.1010962189379E+01 -0.3186367864201E+01  0.0000000000000E+00
-0.1017824725572E+01 -0.2965541723007E+01  0.0000000000000E+00
-0.1031400675063E+01 -0.2745088798625E+01  0.0000000000000E+00
-0.9168000092861E+00 -0.5173280065568E+01  0.0000000000000E+00
-0.9169333519624E+00 -0.4950604684790E+01  0.0000000000000E+00
-0.9170666946716E+00 -0.4727929249131E+01  0.0000000000000E+00
-0.9172000373924E+00 -0.4505253793937E+01  0.0000000000000E+00
-0.9173333800983E+00 -0.4282578363696E+01  0.0000000000000E+00
-0.9174667229726E+00 -0.4059902652372E+01  0.0000000000000E+00
-0.9176000654316E+00 -0.3837227634365E+01  0.0000000000000E+00
-0.9177334080268E+00 -0.3614552388995E+01  0.0000000000000E+00
-0.9178965626411E+00 -0.3391877161911E+01  0.0000000000000E+00
-0.9196131422075E+00 -0.3169213201972E+01  0.0000000000000E+00
-0.9259045267972E+00 -0.2946671660912E+01  0.0000000000000E+00
-0.9382960197803E+00 -0.2724503358577E+01  0.0000000000000E+00
-0.8251466358527E+00 -0.5171719726705E+01  0.0000000000000E+00
[...]
<PointData Vectors="'U'">
<DataArray type="Float64" Name="U" NumberOfComponents="2" ComponentName0="U1" ComponentName1="U2" format="ascii">
 0.3770934987959E-35  0.7803521540770E-36
 0.1049231780647E-43  0.6009527958209E-36
-0.3770934962840E-35  0.7803522166780E-36
-0.6537094673912E+00  0.9087486800554E+00
 0.1501763052537E+00  0.2910946487601E+00
-0.1501762910634E+00  0.2910946493508E+00
 0.6537094933819E+00  0.9087486684768E+00
-0.9201584822481E+01 -0.1162020761013E+02
 0.9201584525015E+01 -0.1162020753285E+02
-0.9550234532495E+01 -0.1477253843215E+02
 0.9550234402448E+01 -0.1477253837568E+02
 0.3875672074661E-36 -0.2639997716835E-35
-0.1057362937556E-35 -0.2015757446573E-35
-0.1511177081392E-35 -0.1323852428186E-35
-0.1528563867524E-35 -0.7435396896963E-36
-0.1369571553529E-35 -0.3033245370014E-36
-0.1152646344024E-35  0.1449221619369E-37
-0.9282357068718E-36  0.2374805734803E-36
-0.7156516406127E-36  0.3899149757968E-36
-0.5193339804148E-36  0.4911865476975E-36
-0.3375593186866E-36  0.5548813365468E-36
-0.1661330571755E-36  0.5898291488696E-36
 0.1661330778844E-36  0.5898291453068E-36
 0.3375593385339E-36  0.5548813294153E-36
 0.5193339987061E-36  0.4911865370079E-36
 0.7156516564511E-36  0.3899149616296E-36
 0.9282357190336E-36  0.2374805560939E-36
 0.1152646350731E-35  0.1449219643717E-37
 0.1369571552783E-35 -0.3033245581680E-36
 0.1528563856346E-35 -0.7435397098823E-36
 0.1511177056462E-35 -0.1323852443134E-35
 0.1057362896531E-35 -0.2015757448865E-35
-0.3875672611377E-36 -0.2639997694206E-35
-0.3076583744230E+00  0.1104098381550E+01
 0.2461006347634E-01  0.1109496263806E+01
 0.2719400149361E+00  0.9556968776118E+00
 0.3788564820143E+00  0.7099349837825E+00
 0.3282762216188E+00  0.4603808394431E+00
-0.8242473918585E-01  0.2554030382025E+00
-0.2876558053927E+00  0.3564941578667E+00
-0.3960554178039E+00  0.5549744760610E+00
-0.3716115820084E+00  0.7808204628952E+00
-0.2229801112989E+00  0.9565303707097E+00
 0.2563127503492E-07  0.1022523410115E+01
 0.2229801594305E+00  0.9565303592490E+00
 0.3716116217643E+00  0.7808204433944E+00
 0.3960554466670E+00  0.5549744542568E+00
 0.2876558244163E+00  0.3564941399510E+00
 0.8242475269074E-01  0.2554030287921E+00
-0.3282761983374E+00  0.4603808443888E+00
-0.3788564499809E+00  0.7099349862895E+00
-0.2719399782682E+00  0.9556968734232E+00
-0.2461002748792E-01  0.1109496252799E+01
 0.3076584058998E+00  0.1104098367394E+01
-0.9584334636739E+01 -0.5428999621927E+01
-0.1211161393366E+02 -0.9414518278203E+01
-0.1356413358878E+02 -0.1160598040972E+02
-0.1364392146102E+02 -0.1181204785067E+02
-0.1207445385019E+02 -0.1126576185005E+02
-0.8342901034086E+01 -0.1337471914493E+02
-0.8156688277241E+01 -0.1556938417832E+02
-0.7966312084220E+01 -0.1883847547956E+02
-0.6268066219211E+01 -0.2495106184342E+02
-0.3077215892127E+01 -0.3277028551170E+02
-0.1514582283784E-06 -0.3638650779070E+02
 0.3077215559362E+01 -0.3277028576038E+02
 0.6268065888533E+01 -0.2495106208973E+02
 0.7966311826285E+01 -0.1883847557110E+02
 0.8156688045286E+01 -0.1556938417763E+02
 0.8342900783038E+01 -0.1337471910409E+02
 0.1207445360223E+02 -0.1126576169691E+02
 0.1364392128240E+02 -0.1181204769986E+02
 0.1356413347540E+02 -0.1160598029664E+02
 0.1211161386837E+02 -0.9414518214111E+01
 0.9584334620780E+01 -0.5428999594692E+01
 0.7679459980434E-01 -0.2743057747485E+00
-0.4267252801544E+00 -0.5137426763159E+00
-0.9776164212064E+00 -0.3534646848525E-01
-0.7946271100268E+00  0.7198170665593E+00
-0.9142111213982E-01  0.8549991416491E+00
 0.2003409225776E+00  0.2940052305605E+00
-0.2906115402924E+00 -0.1011942541148E+00
-0.8726683288633E+00  0.2928767338693E+00
-0.7435813562891E+00  0.1023746503490E+01
-0.7581368901039E-01  0.1205401271990E+01
 0.2517673938059E+00  0.7356981335769E+00
-0.1341680365098E+00  0.4329697147313E+00
 0.1341680627128E+00  0.4329697018728E+00
-0.2517673684782E+00  0.7356981201768E+00
 0.7581371283050E-01  0.1205401256169E+01
 0.7435813745295E+00  0.1023746484224E+01
 0.8726683381144E+00  0.2928767162495E+00
 0.2906115452841E+00 -0.1011942636337E+00
-0.2003409126794E+00  0.2940052263738E+00
 0.9142112727533E-01  0.8549991319195E+00
 0.7946271190790E+00  0.7198170473050E+00
 0.9776164162673E+00 -0.3534648683064E-01
 0.4267252688920E+00 -0.5137426823603E+00
-0.7679460467432E-01 -0.2743057723322E+00
-0.8509736974884E+01 -0.1607041898292E+02
-0.7294710706040E+01 -0.1752116068670E+02
-0.5839066439992E+01 -0.1899070935002E+02
-0.4114228870892E+01 -0.2030735635139E+02
-0.2136866743911E+01 -0.2126783686461E+02
-0.6532024682868E-07 -0.2163214893356E+02
 0.2136866614331E+01 -0.2126783685888E+02
 0.4114228743359E+01 -0.2030735633536E+02
 0.5839066313509E+01 -0.1899070932374E+02
 0.7294710579292E+01 -0.1752116065072E+02
 0.8509736846772E+01 -0.1607041893708E+02
-0.9247558588920E+01 -0.1211361984931E+02
-0.8499028710869E+01 -0.9389866929770E+01
-0.7211722034838E+01 -0.6535740277308E+01
-0.5498054961674E+01 -0.3617041547913E+01
-0.3335842626174E+01 -0.1046840083795E+01
 0.9247558480063E+01 -0.1211361980420E+02
 0.8499028634513E+01 -0.9389866896760E+01
 0.7211721996110E+01 -0.6535740256837E+01
 0.5498054963914E+01 -0.3617041539984E+01
 0.3335842656989E+01 -0.1046840088677E+01
-0.1098509778570E+02 -0.1494275978121E+02
-0.1174035997467E+02 -0.1458242474684E+02
-0.1179411530568E+02 -0.1391251559024E+02
-0.1126862931391E+02 -0.1313896727619E+02
-0.1035416532762E+02 -0.1238353294539E+02
 0.1098509762432E+02 -0.1494275972396E+02
 0.1174035978426E+02 -0.1458242468568E+02
 0.1179411508683E+02 -0.1391251552291E+02
 0.1126862906708E+02 -0.1313896720266E+02
 0.1035416505516E+02 -0.1238353286847E+02
-0.5898208880715E-01 -0.2056757893787E+00
-0.3811446972632E+00 -0.2869608410211E+00
-0.6822850350488E+00  0.5705298993519E-01
-0.5668062574429E+00  0.5465671147000E+00
-0.1778443785826E+00  0.6391054708636E+00
-0.3393623711837E-01  0.3176223196831E+00
-0.3134985700781E+00  0.1259084108994E+00
-0.6109325362653E+00  0.4195448865956E+00
-0.5006979079241E+00  0.8838275481685E+00
-0.1182691703980E+00  0.9871189078463E+00
 0.6055247644148E-01  0.7258792272934E+00
-0.1027935360139E+00  0.6102495542839E+00
-0.1074156318591E+00 -0.1369992429329E+00
-0.3246803537666E+00 -0.1462908780784E+00
-0.4979839970775E+00  0.1081233455109E+00
-0.4299739410448E+00  0.4359082045246E+00
-0.2164110590834E+00  0.5114778488771E+00
-0.1446692459601E+00  0.3413729104927E+00
-0.2991943753643E+00  0.2652173425692E+00
-0.4460918918319E+00  0.4840216839869E+00
-0.3612319154740E+00  0.7862130146553E+00
-0.1351773240887E+00  0.8568950547702E+00
-0.1662836262738E-01  0.7208155659202E+00
-0.4472010771432E-01  0.6985904450547E+00
-0.1160890024411E+00 -0.8118339929517E-01
-0.2700462943846E+00 -0.5634824611270E-01
-0.3772162856923E+00  0.1365541408571E+00
-0.3411090391440E+00  0.3661083734721E+00
-0.2250893249383E+00  0.4362766967060E+00
-0.1883910605159E+00  0.3606261513011E+00
-0.2705903939543E+00  0.3492938437630E+00
-0.3387975178460E+00  0.5151059047326E+00
-0.2750695140779E+00  0.7195212372748E+00
-0.1340254330571E+00  0.7765355206836E+00
-0.4145369277682E-01  0.7124558925192E+00
 0.1407106524764E-01  0.7196845467846E+00
-0.1078434886169E+00 -0.3938366026445E-01
-0.2215492530439E+00  0.2203103186733E-02
-0.2935330668427E+00  0.1529589715214E+00
-0.2778348179152E+00  0.3225737677494E+00
-0.2159100853104E+00  0.3920297136375E+00
-0.1962831810911E+00  0.3745968126106E+00
-0.2375717660545E+00  0.3991595989807E+00
-0.2652413638228E+00  0.5286685084614E+00
-0.2169206794925E+00  0.6739956937412E+00
-0.1232965071171E+00  0.7246211748048E+00
-0.4535029769768E-01  0.6989001920250E+00
 0.4921344467079E-01  0.6963764945491E+00
-0.9337855718511E-01 -0.9334394548282E-02
-0.1798649394971E+00  0.4078122386926E-01
-0.2319885199703E+00  0.1629751851928E+00
-0.2285886433593E+00  0.2957432134622E+00
-0.1965328480588E+00  0.3659751314376E+00
-0.1853702039321E+00  0.3839925692218E+00
-0.2041134150167E+00  0.4281320911035E+00
-0.2114460192459E+00  0.5332585224540E+00
-0.1741592167222E+00  0.6425471638379E+00
-0.1088054238125E+00  0.6892863531753E+00
-0.4459107026808E-01  0.6818290460401E+00
 0.4847767930884E-01  0.6532978588521E+00
-0.7747740488259E-01  0.1176438940631E-01
-0.1442681331481E+00  0.6641893807409E-01
-0.1840033945597E+00  0.1694989514932E+00
-0.1873706301754E+00  0.2794269655992E+00
-0.1716483842622E+00  0.3505892486620E+00
-0.1648483948345E+00  0.3899178400649E+00
-0.1716212025857E+00  0.4445186267806E+00
-0.1693475241883E+00  0.5334365639333E+00
-0.1403175385416E+00  0.6204251979612E+00
-0.9370575642047E-01  0.6641236979427E+00
-0.4583707287096E-01  0.6645509670795E+00
 0.1469109576019E-01  0.6133006674368E+00
-0.6209861761972E-01  0.2632207873128E-01
-0.1136971262942E+00  0.8349419562540E-01
-0.1446953621841E+00  0.1739600488704E+00
-0.1511980646565E+00  0.2696801688285E+00
-0.1442205130741E+00  0.3415030105339E+00
-0.1398398553162E+00  0.3933897714594E+00
-0.1407321011370E+00  0.4533703795876E+00
-0.1346537664467E+00  0.5316462901209E+00
-0.1122124012583E+00  0.6047565527100E+00
-0.7928963952416E-01  0.6459817119300E+00
-0.4931064455223E-01  0.6504965841267E+00
-0.3578772776947E-01  0.5928293576839E+00
-0.4785183057899E-01  0.3621979405167E-01
-0.8693023026971E-01  0.9489462606974E-01
-0.1108465597030E+00  0.1771431218470E+00
-0.1180949173234E+00  0.2639347679983E+00
-0.1156148106947E+00  0.3360753394054E+00
-0.1127121387297E+00  0.3952983298997E+00
-0.1110673606849E+00  0.4579701983254E+00
-0.1042022470753E+00  0.5292145961759E+00
-0.8734481502180E-01  0.5934464966814E+00
-0.6514109328708E-01  0.6327531299148E+00
-0.5175036137197E-01  0.6412815267445E+00
-0.8301717223853E-01  0.5971257761338E+00
-0.3476764726740E-01  0.4278381045026E-01
-0.6296702625948E-01  0.1023916711569E+00
-0.8056188615840E-01  0.1794078007562E+00
-0.8703298518978E-01  0.2606315714925E+00
-0.8663696127523E-01  0.3328487272172E+00
-0.8473134746896E-01  0.3962531439713E+00
-0.8241552489023E-01  0.4601830389444E+00
-0.7638212175892E-01  0.5268449157054E+00
-0.6440942430292E-01  0.5854140358066E+00
-0.5051548311372E-01  0.6234454212389E+00
-0.4925913694166E-01  0.6370208562121E+00
-0.1078123766182E+00  0.6221824614205E+00
-0.2263450928571E-01  0.4691474577666E-01
-0.4095868961861E-01  0.1070979682392E+00
-0.5257287055915E-01  0.1809374704171E+00
-0.5732725584970E-01  0.2588129913285E+00
-0.5765561921071E-01  0.3309862764167E+00
-0.5649310987399E-01  0.3966735473301E+00
-0.5452474469586E-01  0.4611343478215E+00
-0.5016965401162E-01  0.5249361853414E+00
-0.4253510760616E-01  0.5800245079914E+00
-0.3478201928596E-01  0.6173556676275E+00
-0.3927658727080E-01  0.6363579537575E+00
-0.9952677292458E-01  0.6561627087789E+00
-0.1115325124145E-01  0.4918443215885E-01
-0.2018211949248E-01  0.1096845592373E+00
-0.2596220662812E-01  0.1818258037087E+00
-0.2846159971716E-01  0.2579161150860E+00
-0.2878489858525E-01  0.3300226861631E+00
-0.2823259449668E-01  0.3968275747869E+00
-0.2713744599253E-01  0.4614795896553E+00
-0.2487623820513E-01  0.5237140083759E+00
-0.2117146536810E-01  0.5769147677440E+00
-0.1779807200694E-01  0.6139458494934E+00
-0.2190920010347E-01  0.6371964975920E+00
-0.5941548535033E-01  0.6844714468535E+00
 0.7925461261898E-09  0.4990758545689E-01
 0.1724928929715E-08  0.1105093287006E+00
 0.2808208098782E-08  0.1821174887540E+00
 0.4007809652228E-08  0.2576474426251E+00
 0.5288044301630E-08  0.3297250117262E+00
 0.6636223914600E-08  0.3968631918078E+00
 0.8042206474489E-08  0.4615595126660E+00
 0.9472244437828E-08  0.5232946250755E+00
 0.1088621026221E-07  0.5758974975966E+00
 0.1230515777506E-07  0.6128527929024E+00
 0.1397149202928E-07  0.6377140749304E+00
 0.1698337548530E-07  0.6953924859699E+00
 0.1115325280921E-01  0.4918443186567E-01
 0.2018212291896E-01  0.1096845586615E+00
 0.2596221222479E-01  0.1818258029337E+00
 0.2846160771655E-01  0.2579161142129E+00
 0.2878490914315E-01  0.3300226852247E+00
 0.2823260774932E-01  0.3968275737572E+00
 0.2713746206273E-01  0.4614795885441E+00
 0.2487625714385E-01  0.5237140072591E+00
 0.2117148713376E-01  0.5769147666827E+00
 0.1779809658229E-01  0.6139458484599E+00
 0.2190922788000E-01  0.6371964963714E+00
 0.5941551856384E-01  0.6844714441366E+00
 0.2263451079958E-01  0.4691474518730E-01
 0.4095869297317E-01  0.1070979670760E+00
 0.5257287609676E-01  0.1809374688536E+00
 0.5732726380176E-01  0.2588129895799E+00
 0.5765562971386E-01  0.3309862745473E+00
 0.5649312306525E-01  0.3966735452715E+00
 0.5452476072260E-01  0.4611343455874E+00
 0.5016967293492E-01  0.5249361830986E+00
 0.4253512935521E-01  0.5800245058729E+00
 0.3478204376771E-01  0.6173556655752E+00
 0.3927661460527E-01  0.6363579514031E+00
 0.9952680413601E-01  0.6561627039672E+00
 0.3476764868469E-01  0.4278380955956E-01
 0.6296702948767E-01  0.1023916693824E+00
 0.8056189159845E-01  0.1794077983754E+00
 0.8703299306804E-01  0.2606315688641E+00
 0.8663697168652E-01  0.3328487244343E+00
 0.8473136055064E-01  0.3962531408863E+00
 0.8241554084136E-01  0.4601830355618E+00
 0.7638214066338E-01  0.5268449123163E+00
 0.6440944603632E-01  0.5854140326410E+00
 0.5051550747191E-01  0.6234454181955E+00
 0.4925916370816E-01  0.6370208528585E+00
 0.1078124052641E+00  0.6221824555282E+00
 0.4785183184549E-01  0.3621979285444E-01
 0.8693023330566E-01  0.9489462364620E-01
 0.1108465650089E+00  0.1771431185994E+00
 0.1180949251116E+00  0.2639347644836E+00
 0.1156148209765E+00  0.3360753357433E+00
 0.1127121516397E+00  0.3952983257957E+00
 0.1110673765218E+00  0.4579701937483E+00
 0.1042022659699E+00  0.5292145916028E+00
 0.8734483675857E-01  0.5934464924886E+00
 0.6514111752405E-01  0.6327531259210E+00
 0.5175038762714E-01  0.6412815225102E+00
 0.8301719863462E-01  0.5971257701868E+00
 0.6209861866193E-01  0.2632207722690E-01
 0.1136971290519E+00  0.8349419249838E-01
 0.1446953673231E+00  0.1739600446771E+00
 0.1511980723586E+00  0.2696801644186E+00
 0.1442205231889E+00  0.3415030060553E+00
 0.1398398679660E+00  0.3933897663546E+00
 0.1407321168070E+00  0.4533703737389E+00
 0.1346537853632E+00  0.5316462842978E+00
 0.1122124230457E+00  0.6047565475275E+00
 0.7928966365986E-01  0.6459817070489E+00
 0.4931067049114E-01  0.6504965790501E+00
 0.3578775300195E-01  0.5928293523202E+00
 0.7747740559665E-01  0.1176438760790E-01
 0.1442681355068E+00  0.6641893416981E-01
 0.1840033995066E+00  0.1694989462299E+00
 0.1873706378349E+00  0.2794269602806E+00
 0.1716483941760E+00  0.3505892434788E+00
 0.1648484070860E+00  0.3899178340006E+00
 0.1716212180079E+00  0.4445186195338E+00
 0.1693475431995E+00  0.5334365567442E+00
 0.1403175604769E+00  0.6204251918537E+00
 0.9370578045985E-01  0.6641236922898E+00
 0.4583709870928E-01  0.6645509610735E+00
-0.1469107020378E-01  0.6133006626285E+00
 0.9337855741237E-01 -0.9334396566932E-02
 0.1798649411778E+00  0.4078121920092E-01
 0.2319885244753E+00  0.1629751787343E+00
 0.2285886508138E+00  0.2957432071157E+00
 0.1965328575640E+00  0.3659751255966E+00
 0.1853702154062E+00  0.3839925623424E+00
 0.2041134297135E+00  0.4281320824893E+00
 0.2114460379351E+00  0.5332585137415E+00
 0.1741592384732E+00  0.6425471565787E+00
 0.1088054474688E+00  0.6892863465188E+00
 0.4459109602098E-01  0.6818290386236E+00
-0.4847765158281E-01  0.6532978528840E+00
 0.1078434881610E+00 -0.3938366238427E-01
 0.2215492537453E+00  0.2203097741783E-02
 0.2935330707638E+00  0.1529589636370E+00
 0.2778348252705E+00  0.3225737602024E+00
 0.2159100945003E+00  0.3920297072444E+00
 0.1962831916430E+00  0.3745968051279E+00
 0.2375717797862E+00  0.3991595890151E+00
 0.2652413821175E+00  0.5286684980502E+00
 0.2169207011084E+00  0.6739956852230E+00
 0.1232965302900E+00  0.7246211671753E+00
 0.4535032303198E-01  0.6989001830535E+00
-0.4921341532612E-01  0.6963764860196E+00
 0.1160890010507E+00 -0.8118340128463E-01
 0.2700462936451E+00 -0.5634825228625E-01
 0.3772162887739E+00  0.1365541312128E+00
 0.3411090465832E+00  0.3661083643995E+00
 0.2250893340739E+00  0.4362766898490E+00
 0.1883910700467E+00  0.3606261435674E+00
 0.2705904063565E+00  0.3492938325935E+00
 0.3387975355423E+00  0.5151058924193E+00
 0.2750695356102E+00  0.7195212272594E+00
 0.1340254557063E+00  0.7765355120738E+00
 0.4145371723265E-01  0.7124558820617E+00
-0.1407103568377E-01  0.7196845351522E+00
 0.1074156292609E+00 -0.1369992443665E+00
 0.3246803508724E+00 -0.1462908848032E+00
 0.4979839988218E+00  0.1081233336384E+00
 0.4299739488285E+00  0.4359081933361E+00
 0.2164110687445E+00  0.5114778415474E+00
 0.1446692545620E+00  0.3413729030596E+00
 0.2991943859128E+00  0.2652173306276E+00
 0.4460919084048E+00  0.4840216696062E+00
 0.3612319368757E+00  0.7862130026535E+00
 0.1351773463824E+00  0.8568950449698E+00
 0.1662838600170E-01  0.7208155542516E+00
 0.4472013612442E-01  0.6985904309359E+00
 0.5898208485084E-01 -0.2056757895097E+00
 0.3811446910960E+00 -0.2869608478655E+00
 0.6822850344547E+00  0.5705297521056E-01
 0.5668062658430E+00  0.5465671003592E+00
 0.1778443899207E+00  0.6391054627824E+00
 0.3393624541672E-01  0.3176223133516E+00
 0.3134985781170E+00  0.1259083991723E+00
 0.6109325504868E+00  0.4195448702158E+00
 0.5006979286952E+00  0.8838275332724E+00
 0.1182691929161E+00  0.9871188960808E+00
-0.6055245350047E-01  0.7258792147407E+00
 0.1027935628410E+00  0.6102495394175E+00
-0.2891306091179E+01 -0.1002471362004E+01
-0.4719583685223E+01 -0.3595929511197E+01
-0.6229862521783E+01 -0.6699263771779E+01
-0.7404345163056E+01 -0.9884464047447E+01
-0.8140751804040E+01 -0.1303466211518E+02
-0.2406506239789E+01 -0.9516645887826E+00
-0.3871602198020E+01 -0.3631331721666E+01
-0.5132323785850E+01 -0.6903234903138E+01
-0.6155265256718E+01 -0.1039363517032E+02
-0.6859602689721E+01 -0.1396711312240E+02
-0.1869726568830E+01 -0.9203123542532E+00
-0.2960680386151E+01 -0.3689913073737E+01
-0.3939109779997E+01 -0.7110735711071E+01
-0.4766450025843E+01 -0.1087193697772E+02
-0.5387217888270E+01 -0.1486288247245E+02
-0.1281487440727E+01 -0.9041891782715E+00
-0.2000873696298E+01 -0.3751987461001E+01
-0.2670329157062E+01 -0.7286551774773E+01
-0.3255964916221E+01 -0.1126910655621E+02
-0.3727217471024E+01 -0.1562597238937E+02
-0.6521233965067E+00 -0.8977511282360E+00
-0.1008507832626E+01 -0.3798236923686E+01
-0.1348765610907E+01 -0.7404059262370E+01
-0.1653133642898E+01 -0.1153312606370E+02
-0.1910388048279E+01 -0.1615091048338E+02
 0.2650954843436E-07 -0.8962144798155E+00
 0.8175927437286E-08 -0.3815267145477E+01
-0.1489928337193E-07 -0.7445323104403E+01
-0.3476130934407E-07 -0.1162582099523E+02
-0.5110006165801E-07 -0.1634074169525E+02
 0.6521234485392E+00 -0.8977511265724E+00
 0.1008507848673E+01 -0.3798236919176E+01
 0.1348765580924E+01 -0.7404059257347E+01
 0.1653133573169E+01 -0.1153312605773E+02
 0.1910387946143E+01 -0.1615091047611E+02
 0.1281487489962E+01 -0.9041891758215E+00
 0.2000873711361E+01 -0.3751987452893E+01
 0.2670329126489E+01 -0.7286551765191E+01
 0.3255964845890E+01 -0.1126910654454E+02
 0.3727217368639E+01 -0.1562597237433E+02
 0.1869726613914E+01 -0.9203123524564E+00
 0.2960680399382E+01 -0.3689913063559E+01
 0.3939109748349E+01 -0.7110735697677E+01
 0.4766449954521E+01 -0.1087193696070E+02
 0.5387217785013E+01 -0.1486288244997E+02
 0.2406506280014E+01 -0.9516645891139E+00
 0.3871602208410E+01 -0.3631331711067E+01
 0.5132323752537E+01 -0.6903234886719E+01
 0.6155265184063E+01 -0.1039363514821E+02
 0.6859602585072E+01 -0.1396711309273E+02
 0.2891306126534E+01 -0.1002471365391E+01
 0.4719583691737E+01 -0.3595929501410E+01
 0.6229862486191E+01 -0.6699263752978E+01
 0.7404345088687E+01 -0.9884464020341E+01
 0.8140751697560E+01 -0.1303466207784E+02
-0.8604799196343E+01 -0.4008375712568E+01
-0.1150629144654E+02 -0.8340193112058E+01
-0.1326286335124E+02 -0.1082323796148E+02
-0.1374014832922E+02 -0.1175275430571E+02
-0.1272241478203E+02 -0.1181385269903E+02
-0.7523427818736E+01 -0.3092795939615E+01
-0.1065389906415E+02 -0.7217483302380E+01
-0.1266256721225E+02 -0.1002256672463E+02
-0.1350616777783E+02 -0.1151056789522E+02
-0.1303721968263E+02 -0.1221626678655E+02
-0.6427150207494E+01 -0.2390031981073E+01