<VTKFile type="UnstructuredGrid" version="1,0" byte_order="LittleEndian">
<UnstructuredGrid>
<Piece NumberOfPoints="1502" NumberOfCells="1440">
<Points>
<DataArray type="Float64" NumberOfComponents="3" format="ascii">
-0.1100000000000E+01 -0.5395955351400E+01  0.0000000000000E+00
 0.0000000000000E+00 -0.5395955351400E+01  0.0000000000000E+00
 0.1100000000000E+01 -0.5395955351400E+01  0.0000000000000E+00
-0.1147096914462E+01 -0.2549637197335E+01  0.0000000000000E+00
-0.5735484517343E+00 -0.2434375812148E+01  0.0000000000000E+00
 0.5735484627289E+00 -0.2434375813621E+01  0.0000000000000E+00
 0.1147096914462E+01 -0.2549637197335E+01  0.0000000000000E+00
-0.1849553131613E+01  0.3526358745087E+00  0.0000000000000E+00
 0.1849553119580E+01  0.3526358820960E+00  0.0000000000000E+00
-0.7500000000000E+00 -0.7469172457236E+00  0.0000000000000E+00
 0.7500000000000E+00 -0.7469172457236E+00  0.0000000000000E+00
-0.1045000000000E+01 -0.5395955351400E+01  0.0000000000000E+00
-0.9900000000000E+00 -0.5395955351400E+01  0.0000000000000E+00
-0.9350000000000E+00 -0.5395955351400E+01  0.0000000000000E+00
-0.8800000000000E+00 -0.5395955351400E+01  0.0000000000000E+00
-0.8250000000000E+00 -0.5395955351400E+01  0.0000000000000E+00
-0.7700000000000E+00 -0.5395955351400E+01  0.0000000000000E+00
-0.7150000000000E+00 -0.5395955351400E+01  0.0000000000000E+00
-0.6600000000000E+00 -0.5395955351400E+01  0.0000000000000E+00
-0.6050000000000E+00 -0.5395955351400E+01  0.0000000000000E+00
-0.5500000000000E+00 -0.5395955351400E+01  0.0000000000000E+00
-0.4950000000000E+00 -0.5395955351400E+01  0.0000000000000E+00
-0.4400000000000E+00 -0.5395955351400E+01  0.0000000000000E+00
-0.3850000000000E+00 -0.5395955351400E+01  0.0000000000000E+00
-0.3300000000000E+00 -0.5395955351400E+01  0.0000000000000E+00
-0.2750000000000E+00 -0.5395955351400E+01  0.0000000000000E+00
-0.2200000000000E+00 -0.5395955351400E+01  0.0000000000000E+00
-0.1650000000000E+00 -0.5395955351400E+01  0.0000000000000E+00
-0.1100000000000E+00 -0.5395955351400E+01  0.0000000000000E+00
-0.5500000000000E-01 -0.5395955351400E+01  0.0000000000000E+00
 0.5500000000000E-01 -0.5395955351400E+01  0.0000000000000E+00
 0.1100000000000E+00 -0.5395955351400E+01  0.0000000000000E+00
 0.1650000000000E+00 -0.5395955351400E+01  0.0000000000000E+00
 0.2200000000000E+00 -0.5395955351400E+01  0.0000000000000E+00
 0.2750000000000E+00 -0.5395955351400E+01  0.0000000000000E+00
 0.3300000000000E+00 -0.5395955351400E+01  0.0000000000000E+00
 0.3850000000000E+00 -0.5395955351400E+01  0.0000000000000E+00
 0.4400000000000E+00 -0.5395955351400E+01  0.0000000000000E+00
 0.4950000000000E+00 -0.5395955351400E+01  0.0000000000000E+00
 0.5500000000000E+00 -0.5395955351400E+01  0.0000000000000E+00
 0.6050000000000E+00 -0.5395955351400E+01  0.0000000000000E+00
 0.6600000000000E+00 -0.5395955351400E+01  0.0000000000000E+00
 0.7150000000000E+00 -0.5395955351400E+01  0.0000000000000E+00
 0.7700000000000E+00 -0.5395955351400E+01  0.0000000000000E+00
 0.8250000000000E+00 -0.5395955351400E+01  0.0000000000000E+00
 0.8800000000000E+00 -0.5395955351400E+01  0.0000000000000E+00
 0.9350000000000E+00 -0.5395955351400E+01  0.0000000000000E+00
 0.9900000000000E+00 -0.5395955351400E+01  0.0000000000000E+00
 0.1045000000000E+01 -0.5395955351400E+01  0.0000000000000E+00
-0.1090457485425E+01 -0.2534835387692E+01  0.0000000000000E+00
-0.1033638287274E+01 -0.2520739528902E+01  0.0000000000000E+00
-0.9766465596125E+00 -0.2507358430428E+01  0.0000000000000E+00
-0.9194898086732E+00 -0.2494700594942E+01  0.0000000000000E+00
-0.8621760033544E+00 -0.2482774237100E+01  0.0000000000000E+00
-0.8047133091664E+00 -0.2471587199656E+01  0.0000000000000E+00
-0.7471102453220E+00 -0.2461146964797E+01  0.0000000000000E+00
-0.6893756470636E+00 -0.2451460621464E+01  0.0000000000000E+00
-0.6315185976533E+00 -0.2442534831257E+01  0.0000000000000E+00
-0.5164834701774E+00 -0.2427110885343E+01  0.0000000000000E+00
-0.4593279369588E+00 -0.2420596903906E+01  0.0000000000000E+00
-0.4020913288847E+00 -0.2414838384764E+01  0.0000000000000E+00
-0.3447834166166E+00 -0.2409839366687E+01  0.0000000000000E+00
-0.2874140476292E+00 -0.2405603374330E+01  0.0000000000000E+00
-0.2299932608336E+00 -0.2402133417728E+01  0.0000000000000E+00
-0.1725311980367E+00 -0.2399431974579E+01  0.0000000000000E+00
-0.1150380789454E+00 -0.2397500981571E+01  0.0000000000000E+00
-0.5752422729595E-01 -0.2396341828649E+01  0.0000000000000E+00
 0.5546389486577E-08 -0.2395955351400E+01  0.0000000000000E+00
 0.5752423838773E-01 -0.2396341828798E+01  0.0000000000000E+00
 0.1150380900341E+00 -0.2397500981869E+01  0.0000000000000E+00
 0.1725312091205E+00 -0.2399431975026E+01  0.0000000000000E+00
 0.2299932719104E+00 -0.2402133418324E+01  0.0000000000000E+00
 0.2874140586971E+00 -0.2405603375073E+01  0.0000000000000E+00
 0.3447834276736E+00 -0.2409839367578E+01  0.0000000000000E+00
 0.4020913399289E+00 -0.2414838385802E+01  0.0000000000000E+00
 0.4593279479883E+00 -0.2420596905089E+01  0.0000000000000E+00
 0.5164834811903E+00 -0.2427110886672E+01  0.0000000000000E+00
 0.6315186075299E+00 -0.2442534832714E+01  0.0000000000000E+00
 0.6893756558250E+00 -0.2451460622875E+01  0.0000000000000E+00
 0.7471102529713E+00 -0.2461146966132E+01  0.0000000000000E+00
 0.8047133157075E+00 -0.2471587200886E+01  0.0000000000000E+00
 0.8621760087916E+00 -0.2482774238195E+01  0.0000000000000E+00
 0.9194898130114E+00 -0.2494700595873E+01  0.0000000000000E+00
 0.9766465628570E+00 -0.2507358431168E+01  0.0000000000000E+00
 0.1033638289431E+01 -0.2520739529423E+01  0.0000000000000E+00
 0.1090457486500E+01 -0.2534835387966E+01  0.0000000000000E+00
-0.1198647869898E+01 -0.2241266161706E+01  0.0000000000000E+00
-0.1268648723815E+01 -0.1936549534840E+01  0.0000000000000E+00
-0.1365030818765E+01 -0.1639273481360E+01  0.0000000000000E+00
-0.1508189012765E+01 -0.1361870542919E+01  0.0000000000000E+00
-0.1680144970038E+01 -0.1100774774047E+01  0.0000000000000E+00
-0.1821952164099E+01 -0.8222867895427E+00  0.0000000000000E+00
-0.1928187353851E+01 -0.5284288672625E+00  0.0000000000000E+00
-0.1990672926479E+01 -0.2223886077276E+00  0.0000000000000E+00
-0.1996515583144E+01  0.8987643251194E-01  0.0000000000000E+00
-0.1668845971660E+01  0.4076601120269E+00  0.0000000000000E+00
-0.1479374895747E+01  0.4126893222261E+00  0.0000000000000E+00
-0.1292461349724E+01  0.3799608398268E+00  0.0000000000000E+00
-0.1110608534610E+01  0.3252966483736E+00  0.0000000000000E+00
-0.9317783393447E+00  0.2612690433592E+00  0.0000000000000E+00
-0.7510710236004E+00  0.2028788600987E+00  0.0000000000000E+00
-0.5663198949570E+00  0.1589527346874E+00  0.0000000000000E+00
-0.3788543841658E+00  0.1285572405255E+00  0.0000000000000E+00
-0.1898129862087E+00  0.1103187294206E+00  0.0000000000000E+00
-0.6960506046538E-08  0.1040446485997E+00  0.0000000000000E+00
 0.1898129723154E+00  0.1103187285161E+00  0.0000000000000E+00
 0.3788543703536E+00  0.1285572387505E+00  0.0000000000000E+00
 0.5663198813106E+00  0.1589527319805E+00  0.0000000000000E+00
 0.7510710102062E+00  0.2028788563284E+00  0.0000000000000E+00
 0.9317783262470E+00  0.2612690386552E+00  0.0000000000000E+00
 0.1110608521435E+01  0.3252966438709E+00  0.0000000000000E+00
 0.1292461336198E+01  0.3799608365176E+00  0.0000000000000E+00
 0.1479374881852E+01  0.4126893211027E+00  0.0000000000000E+00
 0.1668845957876E+01  0.4076601142919E+00  0.0000000000000E+00
 0.1996515582083E+01  0.8987644530927E-01  0.0000000000000E+00
 0.1990672927530E+01 -0.2223885963474E+00  0.0000000000000E+00
 0.1928187356267E+01 -0.5284288576002E+00  0.0000000000000E+00
 0.1821952167306E+01 -0.8222867816656E+00  0.0000000000000E+00
 0.1680144973598E+01 -0.1100774767938E+01  0.0000000000000E+00
 0.1508189015860E+01 -0.1361870538185E+01  0.0000000000000E+00
 0.1365030820349E+01 -0.1639273477422E+01  0.0000000000000E+00
 0.1268648724541E+01 -0.1936549532107E+01  0.0000000000000E+00
 0.1198647870165E+01 -0.2241266160318E+01  0.0000000000000E+00
-0.1100000000000E+01 -0.5260326847403E+01  0.0000000000000E+00
-0.1100000000000E+01 -0.5124698308092E+01  0.0000000000000E+00
-0.1100000000000E+01 -0.4989069644803E+01  0.0000000000000E+00
-0.1100000000000E+01 -0.4853441051447E+01  0.0000000000000E+00
-0.1100000000000E+01 -0.4717812410022E+01  0.0000000000000E+00
-0.1100000000000E+01 -0.4582183772969E+01  0.0000000000000E+00
-0.1100000000000E+01 -0.4446555134429E+01  0.0000000000000E+00
-0.1100000000000E+01 -0.4310926571738E+01  0.0000000000000E+00
-0.1100000000000E+01 -0.4175297944774E+01  0.0000000000000E+00
-0.1100000000000E+01 -0.4039668924534E+01  0.0000000000000E+00
-0.1100000000000E+01 -0.3904040394389E+01  0.0000000000000E+00
-0.1100000000000E+01 -0.3768412205201E+01  0.0000000000000E+00
-0.1100000000000E+01 -0.3632783739069E+01  0.0000000000000E+00
-0.1100000018863E+01 -0.3497155198281E+01  0.0000000000000E+00
-0.1100208704578E+01 -0.3361526970790E+01  0.0000000000000E+00
-0.1101564472129E+01 -0.3225906092204E+01  0.0000000000000E+00
-0.1104969932856E+01 -0.3090322052364E+01  0.0000000000000E+00
-0.1110964274004E+01 -0.2954828383868E+01  0.0000000000000E+00
-0.1119835267851E+01 -0.2819493137297E+01  0.0000000000000E+00
-0.1131791451013E+01 -0.2684395576555E+01  0.0000000000000E+00
 0.1131791451056E+01 -0.2684395576560E+01  0.0000000000000E+00
 0.1119835267905E+01 -0.2819493137302E+01  0.0000000000000E+00
 0.1110964274050E+01 -0.2954828383873E+01  0.0000000000000E+00
 0.1104969932886E+01 -0.3090322052368E+01  0.0000000000000E+00
 0.1101564472142E+01 -0.3225906092208E+01  0.0000000000000E+00
 0.1100208704581E+01 -0.3361526970793E+01  0.0000000000000E+00
 0.1100000018863E+01 -0.3497155198284E+01  0.0000000000000E+00
 0.1100000000000E+01 -0.3632783739071E+01  0.0000000000000E+00
 0.1100000000000E+01 -0.3768412205204E+01  0.0000000000000E+00
 0.1100000000000E+01 -0.3904040394391E+01  0.0000000000000E+00
 0.1100000000000E+01 -0.4039668924536E+01  0.0000000000000E+00
 0.1100000000000E+01 -0.4175297944775E+01  0.0000000000000E+00
[...]
<PointData Vectors="'U'">
<DataArray type="Float64" Name="U" NumberOfComponents="2" ComponentName0="U1" ComponentName1="U2" format="ascii">
-0.2411752531372E-50 -0.6118125469195E-50
-0.5340971127793E-37 -0.8671503646023E-37
 0.1712239892403E-50 -0.4197075833817E-50
-0.1031924096548E-01 -0.2795401863858E-01
-0.4444841682578E-02 -0.1807452133237E-01
 0.4444841711569E-02 -0.1807452135826E-01
 0.1031924091752E-01 -0.2795401860970E-01
-0.2228903464244E+00 -0.3829995401247E+00
 0.2228903424885E+00 -0.3829995425465E+00
-0.3447382270136E+00 -0.5825758973742E+00
 0.3447382255648E+00 -0.5825758970122E+00
-0.6453015794050E-37 -0.1481370194030E-36
-0.6412754085672E-37 -0.1376391483125E-36
-0.6344900769591E-37 -0.1301740885843E-36
-0.6269087805720E-37 -0.1244806261640E-36
-0.6193819099993E-37 -0.1198975747215E-36
-0.6122122946049E-37 -0.1160519447465E-36
-0.6054700590934E-37 -0.1127203880417E-36
-0.5991328133394E-37 -0.1097623806664E-36
-0.5931452123693E-37 -0.1070856752479E-36
-0.5874551899986E-37 -0.1046281530195E-36
-0.5820040352477E-37 -0.1024199042160E-36
-0.5767087438033E-37 -0.1003532441999E-36
-0.5715160274613E-37 -0.9840350805089E-37
-0.5663761021213E-37 -0.9655123817875E-37
-0.5612418359873E-37 -0.9478044986928E-37
-0.5560679177067E-37 -0.9307748903437E-37
-0.5508101413450E-37 -0.9143024733299E-37
-0.5454248362161E-37 -0.8982763387884E-37
-0.5398684286949E-37 -0.8825922581814E-37
-0.5280665963724E-37 -0.8518538123457E-37
-0.5217318882516E-37 -0.8366081120904E-37
-0.5150470862030E-37 -0.8213210242418E-37
-0.5079651174163E-37 -0.8059029560164E-37
-0.5004373745594E-37 -0.7902677656855E-37
-0.4924131606798E-37 -0.7743341697109E-37
-0.4838388261046E-37 -0.7580278145538E-37
-0.4746564266170E-37 -0.7412843815442E-37
-0.4648016669451E-37 -0.7240547156046E-37
-0.4541876736758E-37 -0.7063051245441E-37
-0.4427906264507E-37 -0.6872983142084E-37
-0.4304577393528E-37 -0.6678598851142E-37
-0.4170426307964E-37 -0.6481722309597E-37
-0.4023466836402E-37 -0.6286313235895E-37
-0.3861098892763E-37 -0.6100826926082E-37
-0.3680791785155E-37 -0.5944284773694E-37
-0.3485403253629E-37 -0.5864535809784E-37
-0.3316682411255E-37 -0.6006858508651E-37
-0.3499926104035E-37 -0.6971763735367E-37
-0.9112947645043E-02 -0.2459926535684E-01
-0.8322275479971E-02 -0.2277347758395E-01
-0.7693048849025E-02 -0.2156468767466E-01
-0.7149133428985E-02 -0.2068064297176E-01
-0.6653157150379E-02 -0.1999712366565E-01
-0.6184961957619E-02 -0.1945087624883E-01
-0.5733793165575E-02 -0.1900557281875E-01
-0.5294480136014E-02 -0.1863824833394E-01
-0.4865456902432E-02 -0.1833306931860E-01
-0.4038164347612E-02 -0.1786592213787E-01
-0.3611428124847E-02 -0.1769371291934E-01
-0.3174901059342E-02 -0.1755045227314E-01
-0.2731666511784E-02 -0.1743309353369E-01
-0.2283426601120E-02 -0.1733866386847E-01
-0.1831279320735E-02 -0.1726466773548E-01
-0.1376092797253E-02 -0.1720910899799E-01
-0.9186480902472E-03 -0.1717047565118E-01
-0.4597001924090E-03 -0.1714771137154E-01
 0.1519787922667E-10 -0.1714019207819E-01
 0.4597002227901E-03 -0.1714771137250E-01
 0.9186481205863E-03 -0.1717047565319E-01
 0.1376092827528E-02 -0.1720910900121E-01
 0.1831279350931E-02 -0.1726466774017E-01
 0.2283426631235E-02 -0.1733866387498E-01
 0.2731666541826E-02 -0.1743309354248E-01
 0.3174901089322E-02 -0.1755045228479E-01
 0.3611428154759E-02 -0.1769371293457E-01
 0.4038164377359E-02 -0.1786592215757E-01
 0.4865456923147E-02 -0.1833306934647E-01
 0.5294480148304E-02 -0.1863824836334E-01
 0.5733793169731E-02 -0.1900557284926E-01
 0.6184961954123E-02 -0.1945087627998E-01
 0.6653157139835E-02 -0.1999712369685E-01
 0.7149133412060E-02 -0.2068064300222E-01
 0.7693048826330E-02 -0.2156468770321E-01
 0.8322275451794E-02 -0.2277347760838E-01
 0.9112947610934E-02 -0.2459926537103E-01
-0.2598352727117E+00 -0.1873901857128E+00
-0.3624327560601E+00 -0.2952499294822E+00
-0.4213236160283E+00 -0.3666549981544E+00
-0.4594267995432E+00 -0.4109094791456E+00
-0.4789183682199E+00 -0.4255300249059E+00
-0.4727038106828E+00 -0.4118313528336E+00
-0.4387091615872E+00 -0.3852912790284E+00
-0.3791505132597E+00 -0.3599962786256E+00
-0.2996856638003E+00 -0.3494307418711E+00
-0.2039689098745E+00 -0.4275695318316E+00
-0.1958845750737E+00 -0.4770534704412E+00
-0.1960066963940E+00 -0.5317257220029E+00
-0.2010554763987E+00 -0.5959003800788E+00
-0.2077407862756E+00 -0.6785023573880E+00
-0.2005024953333E+00 -0.8038457822765E+00
-0.1674634027611E+00 -0.9769466574776E+00
-0.1173098689956E+00 -0.1152066026813E+01
-0.5992381884115E-01 -0.1278584886096E+01
-0.2859576181040E-08 -0.1324431478898E+01
 0.5992381310624E-01 -0.1278584892768E+01
 0.1173098633287E+00 -0.1152066038358E+01
 0.1674633976709E+00 -0.9769466706212E+00
 0.2005024918952E+00 -0.8038457926385E+00
 0.2077407845824E+00 -0.6785023637812E+00
 0.2010554750940E+00 -0.5959003844920E+00
 0.1960066949130E+00 -0.5317257255445E+00
 0.1958845731831E+00 -0.4770534735504E+00
 0.2039689072850E+00 -0.4275695346624E+00
 0.2996856587242E+00 -0.3494307412838E+00
 0.3791505090747E+00 -0.3599962772452E+00
 0.4387091584330E+00 -0.3852912773939E+00
 0.4727038085477E+00 -0.4118313513595E+00
 0.4789183669530E+00 -0.4255300239221E+00
 0.4594267988656E+00 -0.4109094788022E+00
 0.4213236156699E+00 -0.3666549982278E+00
 0.3624327561307E+00 -0.2952499297294E+00
 0.2598352731867E+00 -0.1873901859260E+00
-0.6206587793218E-03 -0.1161308586877E-02
-0.9564492257643E-03 -0.2023044739342E-02
-0.1182340716389E-02 -0.2851114766799E-02
-0.1331566488279E-02 -0.3666643945213E-02
-0.1427036850798E-02 -0.4483482156409E-02
-0.1481170806836E-02 -0.5308971761224E-02
-0.1503249150609E-02 -0.6148217130129E-02
-0.1500247905067E-02 -0.7005732593730E-02
-0.1478164464196E-02 -0.7886325451036E-02
-0.1442801138536E-02 -0.8795749470857E-02
-0.1400589368089E-02 -0.9741255490539E-02
-0.1359460876015E-02 -0.1073220853753E-01
-0.1329851300211E-02 -0.1178094712562E-01
-0.1326116658445E-02 -0.1290497283095E-01
-0.1371083904022E-02 -0.1413070698553E-01
-0.1501143985729E-02 -0.1548906269619E-01
-0.1772467791694E-02 -0.1701481760476E-01
-0.2252994457403E-02 -0.1875203026639E-01
-0.3134759681270E-02 -0.2081608270742E-01
-0.4398562723607E-02 -0.2345781817332E-01
 0.4398562671985E-02 -0.2345781813846E-01
 0.3134759637713E-02 -0.2081608267504E-01
 0.2252994417494E-02 -0.1875203023651E-01
 0.1772467755527E-02 -0.1701481757657E-01
 0.1501143953050E-02 -0.1548906266946E-01
 0.1371083874720E-02 -0.1413070696016E-01
 0.1326116632386E-02 -0.1290497280695E-01
 0.1329851277232E-02 -0.1178094710306E-01
 0.1359460855929E-02 -0.1073220851648E-01
 0.1400589350703E-02 -0.9741255471038E-02
 0.1442801123656E-02 -0.8795749452938E-02
 0.1478164451623E-02 -0.7886325434734E-02
 0.1500247894602E-02 -0.7005732579074E-02
 0.1503249142048E-02 -0.6148217117152E-02
 0.1481170799976E-02 -0.5308971749954E-02
 0.1427036845435E-02 -0.4483482146873E-02
 0.1331566484216E-02 -0.3666643937438E-02
 0.1182340713437E-02 -0.2851114760810E-02
 0.9564492237728E-03 -0.2023044735172E-02
 0.6206587781633E-03 -0.1161308584564E-02
-0.3230932942282E+00 -0.6111440393681E+00
-0.2993810810618E+00 -0.6415473396463E+00
-0.2728360206803E+00 -0.6728229324449E+00
-0.2430411674857E+00 -0.7038967190476E+00
-0.2097692909780E+00 -0.7335188329091E+00
-0.1730178436951E+00 -0.7603248615568E+00
-0.1330374541646E+00 -0.7829436438526E+00
-0.9034240855578E-01 -0.8001116713658E+00
-0.4568574419632E-01 -0.8108274551777E+00
-0.7952602482880E-09 -0.8144701489068E+00
 0.4568574261314E-01 -0.8108274551712E+00
 0.9034240699341E-01 -0.8001116713541E+00
 0.1330374526331E+00 -0.7829436438348E+00
 0.1730178421993E+00 -0.7603248615263E+00
 0.2097692895167E+00 -0.7335188328571E+00
 0.2430411660523E+00 -0.7038967189631E+00
 0.2728360192636E+00 -0.6728229323147E+00
 0.2993810796477E+00 -0.6415473394559E+00
 0.3230932928022E+00 -0.6111440391016E+00
-0.3420730475369E+00 -0.5270761389569E+00
-0.3335446987285E+00 -0.4698007877524E+00
-0.3177314172982E+00 -0.4100524585609E+00
-0.2944893941801E+00 -0.3480064204606E+00
-0.2641784022544E+00 -0.2839365176258E+00
-0.2281090551924E+00 -0.2188926287432E+00
-0.1871078869019E+00 -0.1557002802162E+00
-0.1397523619036E+00 -0.9837177318477E-01
-0.8183194797915E-01 -0.5088139841307E-01
 0.3420730460841E+00 -0.5270761386425E+00
 0.3335446974433E+00 -0.4698007874707E+00
 0.3177314162185E+00 -0.4100524583186E+00
 0.2944893933726E+00 -0.3480064202514E+00
 0.2641784018255E+00 -0.2839365174409E+00
 0.2281090552456E+00 -0.2188926286047E+00
 0.1871078874419E+00 -0.1557002801903E+00
 0.1397523627735E+00 -0.9837177330594E-01
 0.8183194881200E-01 -0.5088139859260E-01
-0.3738730307445E+00 -0.5834444623993E+00
-0.3916531167471E+00 -0.5738485716649E+00
-0.3970296219477E+00 -0.5562302157586E+00
-0.3905424164712E+00 -0.5332799397150E+00
-0.3737994668601E+00 -0.5075750764277E+00
-0.3492085775535E+00 -0.4812870976903E+00
-0.3195683517231E+00 -0.4558109500101E+00
-0.2875127593842E+00 -0.4314995804038E+00
-0.2550001411180E+00 -0.4077138350042E+00
 0.3738730290025E+00 -0.5834444624071E+00
 0.3916531147588E+00 -0.5738485719864E+00
 0.3970296197208E+00 -0.5562302163300E+00
 0.3905424139782E+00 -0.5332799404843E+00
 0.3737994640585E+00 -0.5075750773649E+00
 0.3492085744144E+00 -0.4812870987972E+00
 0.3195683482595E+00 -0.4558109513249E+00
 0.2875127556627E+00 -0.4314995819966E+00
 0.2550001372441E+00 -0.4077138369635E+00
-0.5105927657833E-03 -0.9932026538359E-03
-0.8764161759763E-03 -0.1931857636645E-02
-0.1100609256440E-02 -0.2792304431962E-02
-0.1250985094568E-02 -0.3635465507885E-02
-0.1345308970774E-02 -0.4474241244890E-02
-0.1397769347872E-02 -0.5318019689913E-02
-0.1417543769633E-02 -0.6172751125511E-02
-0.1411758819868E-02 -0.7043474783920E-02
-0.1386413040885E-02 -0.7935213924074E-02
-0.1347303970343E-02 -0.8853670455547E-02
-0.1300852625065E-02 -0.9805754290604E-02
-0.1255005042462E-02 -0.1080014665486E-01
-0.1220213074883E-02 -0.1184806539076E-01
-0.1211119842835E-02 -0.1296429636647E-01
-0.1251110055269E-02 -0.1416716569735E-01
-0.1379329334694E-02 -0.1547737892734E-01
-0.1649518208594E-02 -0.1691862501217E-01
-0.2157784440373E-02 -0.1851667013526E-01
-0.2983147304353E-02 -0.2035470776083E-01
-0.4823806980004E-02 -0.2226618218404E-01
-0.4340321081599E-03 -0.9203542357491E-03
-0.7892116815578E-03 -0.1851496014399E-02
-0.1018898132828E-02 -0.2740976648870E-02
-0.1168639131666E-02 -0.3605059818107E-02
-0.1262370941402E-02 -0.4462740570075E-02
-0.1313294321281E-02 -0.5322424099748E-02
-0.1331033196303E-02 -0.6190586225319E-02
-0.1322730017985E-02 -0.7072383600948E-02
-0.1294426234712E-02 -0.7972808007722E-02
-0.1251926596923E-02 -0.8897276903861E-02
-0.1201677131375E-02 -0.9852108175453E-02
-0.1151685393681E-02 -0.1084496103740E-01
-0.1112631719532E-02 -0.1188521107558E-01
-0.1099944505717E-02 -0.1298378593779E-01
-0.1138704994551E-02 -0.1415203215036E-01
-0.1268922304552E-02 -0.1540198797644E-01
-0.1551881960444E-02 -0.1674260237424E-01
-0.2071874533285E-02 -0.1819021999035E-01
-0.3004859315142E-02 -0.1968484945684E-01
-0.5037704593644E-02 -0.2111265528558E-01
-0.3774426476391E-03 -0.8822014718996E-03
-0.7079969723754E-03 -0.1795774896985E-02
-0.9367681987186E-03 -0.2696279486850E-02
-0.1086111332279E-02 -0.3577081066424E-02
-0.1178776378632E-02 -0.4449853200404E-02
-0.1228313433232E-02 -0.5322977615129E-02
-0.1244219213007E-02 -0.6202385181788E-02
-0.1233716781067E-02 -0.7093085537295E-02
-0.1202859413529E-02 -0.7999766748362E-02
-0.1157481154487E-02 -0.8927349117441E-02
-0.1104089067962E-02 -0.9881333805209E-02
-0.1050852819799E-02 -0.1086805156260E-01
-0.1008925834180E-02 -0.1189457758348E-01
-0.9949587027696E-03 -0.1296782929541E-01
-0.1035631344013E-02 -0.1409326791778E-01
-0.1173751565836E-02 -0.1527418538066E-01
-0.1472694707058E-02 -0.1651072050959E-01
-0.2029812040067E-02 -0.1778392108262E-01
-0.3079022666468E-02 -0.1900643580427E-01
-0.5076254713907E-02 -0.2018972243278E-01
-0.3328792572163E-03 -0.8602260993334E-03
-0.6352205957455E-03 -0.1758075911286E-02
-0.8567149592017E-03 -0.2660255448676E-02
-0.1004120987752E-02 -0.3551835546423E-02
-0.1095291084708E-02 -0.4436414522824E-02
-0.1143349051447E-02 -0.5320358212562E-02
-0.1157611792777E-02 -0.6208831473496E-02
-0.1145252562384E-02 -0.7106289280781E-02
-0.1112329709442E-02 -0.8016902581088E-02
-0.1064711349115E-02 -0.8944900349930E-02
-0.1009009340355E-02 -0.9894784010262E-02
-0.9536636063553E-03 -0.1087134961061E-01
-0.9105169313527E-03 -0.1187922873230E-01
-0.8975345608749E-03 -0.1292167729692E-01
-0.9433220503020E-03 -0.1399894018423E-01
-0.1092978737027E-02 -0.1510804248443E-01
-0.1413762229667E-02 -0.1623846033270E-01
-0.2019411253277E-02 -0.1735345290328E-01
-0.3134534516990E-02 -0.1839931088363E-01
-0.4994874464542E-02 -0.1945640522641E-01
-0.2959856080495E-03 -0.8468656932231E-03
-0.5703152392802E-03 -0.1732407732101E-02
-0.7802789028624E-03 -0.2632244314482E-02
-0.9235598712400E-03 -0.3529757651659E-02
-0.1012533471858E-02 -0.4422908058164E-02
-0.1058928804229E-02 -0.5315200073653E-02
-0.1071687589699E-02 -0.6210603740519E-02
-0.1057835187143E-02 -0.7112773938780E-02
-0.1023394621269E-02 -0.8025158045856E-02
-0.9742698718807E-03 -0.8951142895563E-02
-0.9172130919004E-03 -0.9894102900543E-02
-0.8610246863162E-03 -0.1085721847143E-01
-0.8183290997286E-03 -0.1184279479496E-01
-0.8084402954236E-03 -0.1285089175039E-01
-0.8617628482506E-03 -0.1387777319755E-01
-0.1025484620307E-02 -0.1491564009194E-01
-0.1371384832487E-02 -0.1594708308110E-01
-0.2017919574987E-02 -0.1693842648187E-01
-0.3145173479696E-02 -0.1787726164563E-01
-0.4835531088180E-02 -0.1886426881997E-01
-0.2642806814006E-03 -0.8384753953238E-03
-0.5120695374605E-03 -0.1714714044326E-02
-0.7080546453883E-03 -0.2610740375133E-02
-0.8451648555416E-03 -0.3510849412226E-02
-0.9310511146145E-03 -0.4409692910954E-02
-0.9755227596898E-03 -0.5308044339037E-02
-0.9868824207726E-03 -0.6208381846404E-02
-0.9719074430066E-03 -0.7113369949139E-02
-0.9365364135161E-03 -0.8025580930307E-02
-0.8866981371508E-03 -0.8947449506500E-02
-0.8293046726947E-03 -0.9881161980469E-02
-0.7735550778757E-03 -0.1082832401502E-01
-0.7328584774118E-03 -0.1178917129674E-01
-0.7277570138993E-03 -0.1276122952132E-01
-0.7901397793855E-03 -0.1373799647924E-01
-0.9689109208634E-03 -0.1470877395348E-01
-0.1337869860734E-02 -0.1565547313304E-01
-0.2007820122943E-02 -0.1655774513774E-01
-0.3106530404082E-02 -0.1743339997209E-01
-0.4624815261688E-02 -0.1837858981731E-01
-0.2362769686780E-03 -0.8331047177091E-03
-0.4593049193568E-03 -0.1702352556914E-02
-0.6400867907054E-03 -0.2594242605550E-02
-0.7694086326596E-03 -0.3494806147376E-02
-0.8512956648536E-03 -0.4396996246878E-02
-0.8935315755304E-03 -0.5299367636704E-02
-0.9035731691258E-03 -0.6202834252178E-02
-0.8878455699277E-03 -0.7108944418368E-02
-0.8521494652433E-03 -0.8019296043569E-02
-0.8024139603963E-03 -0.8935309636293E-02
-0.7457034345154E-03 -0.9857987210263E-02
-0.6915977742987E-03 -0.1078748935121E-01
-0.6542006321516E-03 -0.1172234300907E-01
-0.6550304061469E-03 -0.1265827082061E-01
-0.7270037449666E-03 -0.1358722799139E-01
-0.9197256397211E-03 -0.1449799085895E-01
-0.1305215607988E-02 -0.1537656466193E-01
-0.1978995954143E-02 -0.1621766695465E-01
-0.3022527895214E-02 -0.1705650917317E-01
-0.4378838309104E-02 -0.1797557517976E-01
-0.2110356575007E-03 -0.8296322684861E-03
-0.4110349664481E-03 -0.1693596627171E-02
-0.5761502635454E-03 -0.2581504186514E-02
-0.6965262002538E-03 -0.3481206203689E-02
-0.7735986351644E-03 -0.4384937508978E-02
-0.8132771307289E-03 -0.5289593428551E-02
-0.8220667760026E-03 -0.6194614119248E-02
-0.8059498343251E-03 -0.7100383959230E-02
-0.7705325310266E-03 -0.8007476580392E-02
-0.7217054316888E-03 -0.8916283611618E-02
-0.6666464949855E-03 -0.9826681246988E-02
-0.6152424277941E-03 -0.1073757731240E-01
-0.5821167006292E-03 -0.1164620361113E-01
-0.5894115068958E-03 -0.1254721212511E-01
-0.6704312259071E-03 -0.1343223391375E-01
-0.8740194128641E-03 -0.1429162467717E-01
-0.1267042528058E-02 -0.1511781480274E-01
-0.1926951391507E-02 -0.1591823153258E-01
-0.2899394462845E-02 -0.1673587372258E-01
-0.4107286210142E-02 -0.1763843658209E-01
-0.1879343148511E-03 -0.8273793033017E-03
-0.3664706289317E-03 -0.1687304700723E-02
-0.5159067934782E-03 -0.2571562171692E-02
-0.6265752820249E-03 -0.3469629347675E-02
-0.6981691826630E-03 -0.4373571625974E-02
-0.7349956176499E-03 -0.5279100704899E-02
-0.7425938944740E-03 -0.6184355424582E-02
-0.7264387923491E-03 -0.7088578188404E-02
-0.6918852706841E-03 -0.7991315317745E-02
-0.6447322262297E-03 -0.8891956665600E-02
-0.5922015866645E-03 -0.9789352833617E-02
-0.5443615671181E-03 -0.1068138745765E-01
-0.5161128964211E-03 -0.1156442000908E-01
-0.5297862297252E-03 -0.1243272263578E-01
-0.6182956388933E-03 -0.1327867708408E-01
-0.8282168850559E-03 -0.1409561579848E-01
-0.1219070907870E-02 -0.1488281417835E-01
-0.1850688472305E-02 -0.1565682723308E-01
-0.2743419444440E-02 -0.1646253782198E-01
-0.3815848812986E-02 -0.1735438607506E-01
-0.1665401722440E-03 -0.8259193520636E-03
-0.3249858057980E-03 -0.1682713380576E-02
-0.4589838115980E-03 -0.2563700024401E-02
-0.5594917400974E-03 -0.3459712379653E-02
-0.6251059657764E-03 -0.4362926542285E-02
-0.6588360134949E-03 -0.5268233550028E-02
-0.6653060495838E-03 -0.6172668391968E-02
-0.6494472057388E-03 -0.7074403880385E-02
-0.6163090303215E-03 -0.7971996776988E-02
-0.5715328351814E-03 -0.8863896227384E-02
-0.5222873039789E-03 -0.9748055191017E-02
-0.4786548643559E-03 -0.1062157372485E-01
-0.4555204224511E-03 -0.1148033823985E-01
-0.4749125002126E-03 -0.1231884327955E-01
-0.5685398346496E-03 -0.1313102385405E-01
-0.7794746456216E-03 -0.1391385085090E-01
-0.1158875213639E-02 -0.1467271711639E-01
-0.1751225071160E-02 -0.1543010676784E-01
-0.2560030837484E-02 -0.1622901426694E-01
-0.3508482866022E-02 -0.1711441004976E-01
-0.1465453305294E-03 -0.8249457083858E-03
-0.2861314869675E-03 -0.1679248872854E-02
-0.4051324626167E-03 -0.2557318873496E-02
-0.4953348884102E-03 -0.3451076061149E-02
-0.5547027052254E-03 -0.4352928495880E-02
-0.5852324657826E-03 -0.5257208072030E-02
-0.5907171272856E-03 -0.6160041134253E-02
-0.5755296074610E-03 -0.7058641471118E-02
-0.5443622282475E-03 -0.7950656195686E-02
-0.5026210602115E-03 -0.8833692672435E-02
-0.4573011626073E-03 -0.9704962607271E-02
-0.4183012848020E-03 -0.1056102917627E-01
-0.4001694816363E-03 -0.1139766604238E-01
-0.4241348600899E-03 -0.1221006127747E-01
-0.5199880026094E-03 -0.1299417325182E-01
-0.7265112650489E-03 -0.1375063608299E-01
-0.1086608191055E-02 -0.1448974619134E-01
-0.1632315085622E-02 -0.1523719007755E-01
-0.2357678766160E-02 -0.1603305104904E-01
-0.3192150573864E-02 -0.1691211313048E-01
-0.1277028611400E-03 -0.8243176362514E-03
-0.2494435476306E-03 -0.1676634057548E-02
-0.3538693416543E-03 -0.2552142668302E-02
-0.4336916327760E-03 -0.3443618019823E-02
-0.4865837640343E-03 -0.4343737153182E-02
-0.5137842864637E-03 -0.5246453824328E-02
-0.5183572218979E-03 -0.6147155418878E-02
-0.5041217755819E-03 -0.7042212990243E-02
-0.4753679178875E-03 -0.7928453127048E-02
-0.4371846629403E-03 -0.8802740527999E-02
-0.3962616036291E-03 -0.9661685448822E-02
-0.3621026796794E-03 -0.1050151691241E-01
-0.3485922777681E-03 -0.1131816877998E-01
-0.3756877366690E-03 -0.1210783289961E-01
-0.4706669081593E-03 -0.1286868512394E-01
-0.6675832497360E-03 -0.1360473692471E-01
-0.1001573648453E-02 -0.1432999232390E-01
-0.1495120110158E-02 -0.1507160001392E-01
-0.2136645826400E-02 -0.1586617871733E-01
-0.2867748575863E-02 -0.1674023220610E-01
-0.1098202373436E-03 -0.8239156889967E-03
-0.2145794974566E-03 -0.1674633608379E-02
-0.3048610531801E-03 -0.2547913417137E-02
-0.3743318567522E-03 -0.3437190193241E-02
-0.4206173422655E-03 -0.4335400669472E-02
-0.4444119241726E-03 -0.5236243302655E-02
-0.4481545072336E-03 -0.6134512135094E-02
-0.4351257488513E-03 -0.7025855749034E-02
-0.4091729987296E-03 -0.7906381704235E-02
-0.3749838094359E-03 -0.8772318488414E-02
-0.3388033803957E-03 -0.9619807397095E-02
-0.3095240750729E-03 -0.1044491280998E-01
-0.3000479161592E-03 -0.1124392606628E-01
-0.3286371120181E-03 -0.1201421063758E-01