<?xml version="1.0"?>
<VTKFile type="PolyData" version="0.1" byte_order="LittleEndian" header_type="UInt32" compressor="vtkZLibDataCompressor">
  <PolyData>
    <Piece NumberOfPoints="80" NumberOfVerts="0" NumberOfLines="0" NumberOfStrips="0" NumberOfPolys="0">
      <PointData Normals="Load Orientation">
        <DataArray type="Float64" Name="Load Orientation" NumberOfComponents="3" format="ascii" RangeMin="0.9999999999999998" RangeMax="1">
          0.9818076670631627 0.18987813169501583 0 0.9755717421106618 0.21968107791789543 0
          0.9669092319182983 0.25512063270375945 0 0.953785032698611 0.3004897858498846 0
          0.9332278050991504 0.35928521231720945 0 0.9122773666508894 0.40957295601213545 0
          0.9162401311573315 0.400629532182534 0 0.9327003686570366 0.3606522179427541 0
          0.9472869581531506 0.32038635881221755 0 0.9589644755068846 0.2835262504880384 0
          0.9689960640941577 0.24707615783403875 0 0.9781772790548129 0.20777201626042593 0
          0.9857168106318036 0.16841130970889356 0 0.9919286442207567 0.12679733741041874 0
          0.9969463335854392 0.0780897429279307 0 0.9997076752959755 0.024177757429433767 0
          0.9998528980389245 -0.017151742860829787 0 0.9832387968556364 -0.18232242966207052 0
          0.8836677746795786 -0.4681145842556517 0 0.6719154033177546 -0.7406279030554677 0
          0.41135091315416933 -0.9114770574442513 0 0.28251274678087007 -0.9592635445519276 0
          0.17454871784437304 -0.9846485388700303 0 0.06407119781575342 -0.9979453299707628 0
          -0.04302880114228124 -0.9990738322427717 0 -0.12450071928986557 -0.9922195174941411 0
          -0.18568716403524618 -0.9826089136134211 0 -0.22878965069017765 -0.973475883490221 0
          -0.2526299042176146 -0.9675629858024741 0 -0.25699667525274505 -0.9664122872299561 0
          -0.23941920373512818 -0.9709162913881079 0 -0.21042461280712374 -0.9776100870617958 0
          -0.1803960142467158 -0.9835940616147999 0 -0.15234877298217978 -0.9883267938140827 0
          -0.1265551089760552 -0.9919595780030852 0 -0.10254686487372927 -0.9947281741785385 0
          -0.0797128759314127 -0.9968178657160711 0 -0.057436920148413236 -0.9983491374283172 0
          -0.035094879804553586 -0.9993839849684925 0 -0.011999013692657165 -0.9999280092438673 0
          0.01199901255082356 -0.9999280092575691 0 0.03509487871708392 -0.9993839850066807 0
          0.0574369190786927 -0.9983491374898602 0 0.07971287484861868 -0.9968178658026593 0
          0.10254686374767034 -0.9947281742946246 0 0.12655510777695697 -0.9919595781560672 0
          0.15234877168239233 -0.9883267940144425 0 0.1803960128364834 -0.9835940618734434 0
          0.2104246113461664 -0.977610087376258 0 0.23941920250451187 -0.9709162916915667 0
          0.25699667494641437 -0.966412287311418 0 0.2526299048999675 -0.9675629856243124 0
          0.22878965237034654 -0.9734758830953418 0 0.185687166672018 -0.9826089131151408 0
          0.1245007228240563 -0.9922195170506816 0 0.043028805709811296 -0.9990738320460542 0
          -0.0640711923210755 -0.9979453303235382 0 -0.17454871205056993 -0.9846485398970982 0
          -0.2825127403454096 -0.9592635464472353 0 -0.41135090533162355 -0.9114770609745775 0
          -0.6719153952403525 -0.7406279103834806 0 -0.8836677698172012 -0.4681145934344432 0
          -0.9832387956024732 -0.18232243642019993 0 -0.9998528980110072 -0.017151744488255228 0
          -0.999707675319125 0.02417775647224371 0 -0.9969463336682745 0.07808974187039902 0
          -0.9919286443322243 0.12679733653841355 0 -0.9857168107637752 0.16841130893646025 0
          -0.9781772792167134 0.2077720154982094 0 -0.9689960642747445 0.2470761571258045 0
          -0.9589644757000334 0.2835262498347555 0 -0.9472869583695824 0.32038635817229333 0
          -0.932700368896556 0.3606522173233213 0 -0.9162401313400168 0.40062953176473237 0
          -0.9122773665349748 0.40957295627032214 0 -0.9332278048475546 0.35928521297071847 0
          -0.9537850325570382 0.30048978629925116 0 -0.966909231869946 0.2551206328870145 0
          -0.975571742124568 0.21968107785614013 0 -0.981807667121793 0.18987813139185458 0
          <InformationKey name="L2_NORM_RANGE" location="vtkDataArray" length="2">
            <Value index="0">
              1
            </Value>
            <Value index="1">
              1
            </Value>
          </InformationKey>
        </DataArray>
        <DataArray type="Float64" Name="Load Magnitude" format="ascii" RangeMin="0" RangeMax="5.839317786759886">
          0 0 0 0 0 0
          0 0 0 0 0 0
          0 0 0 0 0 0
          0 0 0 0 0 0
          0 0 0 0.21550852773569654 1.0428896901964317 1.8423076955682594
          2.5690427962747444 3.2230925647062985 3.8044689841393127 4.313176117884204 4.74921384085337 5.112581022903453
          5.4032759416784835 5.621297057562663 5.76664427661305 5.8393177849804365 5.839317786759886 5.766644281951735
          5.621297066462123 5.403275954133519 5.1125810389177415 4.749213860425764 4.313176141021511 3.8044690108302297
          3.223092594937294 2.56904283007983 1.8423077329390607 1.042889731124317 0.21550855804986865 0
          0 0 0 0 0 0
          0 0 0 0 0 0
          0 0 0 0 0 0
          0 0 0 0 0 0
          0 0
        </DataArray>
      </PointData>
      <CellData>
      </CellData>
      <Points>
        <DataArray type="Float32" Name="Points" NumberOfComponents="3" format="ascii" RangeMin="0.27152179702518625" RangeMax="2.1388753471380686">
          -1.2023352 -1.7689482 0 -1.2261049 -1.6553471 0
          -1.2536606 -1.5426127 0 -1.2859049 -1.4311471 0
          -1.3241917 -1.3216431 0 -1.3688109 -1.2145433 0
          -1.4158325 -1.1084219 0 -1.4600139 -1.001118 0
          -1.499538 -0.8920126 0 -1.5345867 -0.7813814 0
          -1.5653807 -0.66949004 0 -1.5917783 -0.5564842 0
          -1.6136103 -0.4425083 0 -1.6307428 -0.3277351 0
          -1.6426332 -0.21231328 0 -1.6485682 -0.09644123 0
          -1.648976 0.019594155 0 -1.6374276 0.13452455 0
          -1.5998356 0.24247779 0 -1.5300261 0.33232197 0
          -1.4527806 0.3866831 0 -1.3819914 0.4129366 0
          -1.3083992 0.4302398 0 -1.2333425 0.43927354 0
          -1.1577349 0.44006985 0 -1.0823313 0.43372583 0
          -1.0075419 0.42197847 0 -0.9334564 0.40628037 0
          -0.8599368 0.3880459 0 -0.786683 0.36874261 0
          -0.713303 0.3499399 0 -0.6395002 0.33290154 0
          -0.56521744 0.31809878 0 -0.49052846 0.30549565 0
          -0.41552225 0.29493177 0 -0.3402731 0.28625414 0
          -0.26483968 0.27935073 0 -0.18926911 0.2741559 0
          -0.11360141 0.27065113 0 -0.037873976 0.26886734 0
          0.037873972 0.26886734 0 0.1136014 0.27065113 0
          0.18926911 0.2741559 0 0.26483968 0.27935073 0
          0.3402731 0.28625414 0 0.41552222 0.29493177 0
          0.49052846 0.30549565 0 0.56521744 0.31809878 0
          0.6395002 0.33290154 0 0.713303 0.3499399 0
          0.786683 0.36874261 0 0.8599368 0.3880459 0
          0.9334564 0.40628037 0 1.0075419 0.42197847 0
          1.0823313 0.43372583 0 1.1577349 0.44006985 0
          1.2333425 0.43927354 0 1.3083992 0.4302398 0
          1.3819914 0.4129366 0 1.4527806 0.3866831 0
          1.5300261 0.33232197 0 1.5998356 0.24247779 0
          1.6374276 0.13452455 0 1.648976 0.019594159 0
          1.6485682 -0.096441224 0 1.6426332 -0.21231328 0
          1.6307428 -0.32773507 0 1.6136103 -0.4425083 0
          1.5917783 -0.5564842 0 1.5653807 -0.66949004 0
          1.5345867 -0.78138137 0 1.499538 -0.8920126 0
          1.4600139 -1.001118 0 1.4158325 -1.1084219 0
          1.3688109 -1.2145433 0 1.3241917 -1.3216431 0
          1.2859049 -1.4311471 0 1.2536606 -1.5426127 0
          1.2261049 -1.6553471 0 1.2023352 -1.7689482 0
          <InformationKey name="L2_NORM_RANGE" location="vtkDataArray" length="2">
            <Value index="0">
              0.27152179703
            </Value>
            <Value index="1">
              2.1388753471
            </Value>
          </InformationKey>
        </DataArray>
      </Points>
      <Verts>
        <DataArray type="Int64" Name="connectivity" format="ascii" RangeMin="1e+299" RangeMax="-1e+299">
        </DataArray>
        <DataArray type="Int64" Name="offsets" format="ascii" RangeMin="1e+299" RangeMax="-1e+299">
        </DataArray>
      </Verts>
      <Lines>
        <DataArray type="Int64" Name="connectivity" format="ascii" RangeMin="1e+299" RangeMax="-1e+299">
        </DataArray>
        <DataArray type="Int64" Name="offsets" format="ascii" RangeMin="1e+299" RangeMax="-1e+299">
        </DataArray>
      </Lines>
      <Strips>
        <DataArray type="Int64" Name="connectivity" format="ascii" RangeMin="1e+299" RangeMax="-1e+299">
        </DataArray>
        <DataArray type="Int64" Name="offsets" format="ascii" RangeMin="1e+299" RangeMax="-1e+299">
        </DataArray>
      </Strips>
      <Polys>
        <DataArray type="Int64" Name="connectivity" format="ascii" RangeMin="1e+299" RangeMax="-1e+299">
        </DataArray>
        <DataArray type="Int64" Name="offsets" format="ascii" RangeMin="1e+299" RangeMax="-1e+299">
        </DataArray>
      </Polys>
    </Piece>
  </PolyData>
</VTKFile>
