<?xml version="1.0"?>
<VTKFile type="PolyData" version="0.1" byte_order="LittleEndian" header_type="UInt32" compressor="vtkZLibDataCompressor">
  <PolyData>
    <Piece NumberOfPoints="80" NumberOfVerts="0" NumberOfLines="0" NumberOfStrips="0" NumberOfPolys="0">
      <PointData Normals="Load Orientation">
        <DataArray type="Float64" Name="Load Orientation" NumberOfComponents="3" format="ascii" RangeMin="0.9999999999999998" RangeMax="1">
          0.9818076670631624 0.18987813169501805 0 0.9755717421106618 0.21968107791789543 0
          0.9669092319182983 0.25512063270375945 0 0.953785032698611 0.3004897858498846 0
          0.9332278050991504 0.35928521231720945 0 0.912277366650887 0.40957295601214094 0
          0.9162401311573338 0.40062953218252845 0 0.9327003686570371 0.36065221794275304 0
          0.9472869581531504 0.3203863588122179 0 0.9589644755068842 0.28352625048803937 0
          0.9689960640941577 0.24707615783403897 0 0.9781772790548141 0.20777201626042055 0
          0.985716810631802 0.1684113097089031 0 0.9919286442207564 0.12679733741042057 0
          0.9969463335854397 0.07808974292792317 0 0.9997076752959754 0.02417775742943371 0
          0.9998528980389246 -0.01715174286082216 0 0.9832387968556356 -0.18232242966207424 0
          0.8836677746795772 -0.4681145842556542 0 0.6719154033177563 -0.7406279030554661 0
          0.41135091315416933 -0.9114770574442513 0 0.28251274678087007 -0.9592635445519276 0
          0.17454871784437304 -0.9846485388700303 0 0.06407119781575342 -0.9979453299707628 0
          -0.04302880114228124 -0.9990738322427717 0 -0.1245007192898652 -0.992219517494141 0
          -0.18568716403524596 -0.9826089136134212 0 -0.2287896506901794 -0.9734758834902207 0
          -0.2526299042176139 -0.9675629858024742 0 -0.2569966752527448 -0.9664122872299561 0
          -0.23941920373512784 -0.970916291388108 0 -0.21042461280712435 -0.9776100870617956 0
          -0.18039601424671528 -0.9835940616147999 0 -0.15234877298217983 -0.9883267938140826 0
          -0.1265551089760553 -0.9919595780030852 0 -0.10254686487372927 -0.9947281741785385 0
          -0.0797128759314127 -0.9968178657160711 0 -0.057436920148413236 -0.9983491374283172 0
          -0.035094879804553586 -0.9993839849684925 0 -0.0119990136926579 -0.9999280092438673 0
          0.011999012550824292 -0.9999280092575691 0 0.03509487871708392 -0.9993839850066807 0
          0.0574369190786923 -0.9983491374898602 0 0.0797128748486185 -0.9968178658026593 0
          0.10254686374767107 -0.9947281742946243 0 0.12655510777695697 -0.9919595781560672 0
          0.15234877168239155 -0.9883267940144427 0 0.18039601283648368 -0.9835940618734434 0
          0.2104246113461666 -0.9776100873762579 0 0.23941920250451187 -0.9709162916915667 0
          0.25699667494641437 -0.966412287311418 0 0.2526299048999668 -0.9675629856243125 0
          0.2287896523703473 -0.9734758830953418 0 0.185687166672018 -0.9826089131151408 0
          0.12450072282405486 -0.9922195170506817 0 0.04302880570981142 -0.9990738320460542 0
          -0.06407119232107422 -0.9979453303235382 0 -0.17454871205056677 -0.9846485398970987 0
          -0.282512740345411 -0.9592635464472349 0 -0.41135090533162394 -0.9114770609745774 0
          -0.6719153952403495 -0.7406279103834833 0 -0.8836677698171983 -0.4681145934344485 0
          -0.9832387956024736 -0.18232243642019802 0 -0.9998528980110073 -0.0171517444882514 0
          -0.9997076753191251 0.024177756472241796 0 -0.9969463336682745 0.07808974187039908 0
          -0.991928644332224 0.12679733653841518 0 -0.9857168107637762 0.16841130893645492 0
          -0.9781772792167142 0.20777201549820512 0 -0.9689960642747432 0.24707615712580921 0
          -0.958964475700034 0.2835262498347532 0 -0.947286958369581 0.3203863581722976 0
          -0.9327003688965563 0.36065221732332065 0 -0.9162401313400177 0.40062953176473026 0
          -0.9122773665349727 0.40957295627032675 0 -0.9332278048475555 0.3592852129707162 0
          -0.9537850325570368 0.30048978629925516 0 -0.9669092318699467 0.2551206328870123 0
          -0.975571742124568 0.21968107785613988 0 -0.981807667121793 0.18987813139185494 0
          <InformationKey name="L2_NORM_RANGE" location="vtkDataArray" length="2">
            <Value index="0">
              1
            </Value>
            <Value index="1">
              1
            </Value>
          </InformationKey>
        </DataArray>
        <DataArray type="Float64" Name="Load Magnitude" format="ascii" RangeMin="0" RangeMax="4.3833779099595365">
          0 0 0 0 0 0
          0 0 0 0 0 0
          0 0 0 0 0 0
          0 0 0 0 0 0
          0 0 0 0 0 0
          0.09134465475943244 0.6732529771338 1.2821984479670883 1.8366426132132532 2.33658567535631 2.7820268272319066
          3.1729644396727936 3.50939668771344 3.7913233793207572 4.018744605810304 4.191660500767557 4.310071467375106
          4.373977333075844 4.3833779099595365 4.338273146907265 4.238663528376341 4.084550008737275 3.8759334760328845
          3.612814320377129 3.2951907090239696 2.923056199930446 2.4964113676093196 2.0152717458870972 1.479658635703621
          0.8895962201342635 0.251640459139391 0 0 0 0
          0 0 0 0 0 0
          0 0 0 0 0 0
          0 0 0 0 0 0
          0 0
        </DataArray>
      </PointData>
      <CellData>
      </CellData>
      <Points>
        <DataArray type="Float32" Name="Points" NumberOfComponents="3" format="ascii" RangeMin="0.27152179702518625" RangeMax="2.1388753471380686">
          -1.2023352 -1.7689482 0 -1.2261049 -1.6553471 0
          -1.2536606 -1.5426127 0 -1.2859049 -1.4311471 0
          -1.3241917 -1.3216431 0 -1.3688109 -1.2145433 0
          -1.4158325 -1.1084219 0 -1.4600139 -1.001118 0
          -1.499538 -0.8920126 0 -1.5345867 -0.7813814 0
          -1.5653807 -0.66949004 0 -1.5917783 -0.5564842 0
          -1.6136103 -0.4425083 0 -1.6307428 -0.3277351 0
          -1.6426332 -0.21231328 0 -1.6485682 -0.09644123 0
          -1.648976 0.019594155 0 -1.6374276 0.13452455 0
          -1.5998356 0.24247779 0 -1.5300261 0.33232197 0
          -1.4527806 0.3866831 0 -1.3819914 0.4129366 0
          -1.3083992 0.4302398 0 -1.2333425 0.43927354 0
          -1.1577349 0.44006985 0 -1.0823313 0.43372583 0
          -1.0075419 0.42197847 0 -0.9334564 0.40628037 0
          -0.8599368 0.3880459 0 -0.786683 0.36874261 0
          -0.713303 0.3499399 0 -0.6395002 0.33290154 0
          -0.56521744 0.31809878 0 -0.49052846 0.30549565 0
          -0.41552225 0.29493177 0 -0.3402731 0.28625414 0
          -0.26483968 0.27935073 0 -0.18926911 0.2741559 0
          -0.11360141 0.27065113 0 -0.037873976 0.26886734 0
          0.037873972 0.26886734 0 0.1136014 0.27065113 0
          0.18926911 0.2741559 0 0.26483968 0.27935073 0
          0.3402731 0.28625414 0 0.41552222 0.29493177 0
          0.49052846 0.30549565 0 0.56521744 0.31809878 0
          0.6395002 0.33290154 0 0.713303 0.3499399 0
          0.786683 0.36874261 0 0.8599368 0.3880459 0
          0.9334564 0.40628037 0 1.0075419 0.42197847 0
          1.0823313 0.43372583 0 1.1577349 0.44006985 0
          1.2333425 0.43927354 0 1.3083992 0.4302398 0
          1.3819914 0.4129366 0 1.4527806 0.3866831 0
          1.5300261 0.33232197 0 1.5998356 0.24247779 0
          1.6374276 0.13452455 0 1.648976 0.019594159 0
          1.6485682 -0.096441224 0 1.6426332 -0.21231328 0
          1.6307428 -0.32773507 0 1.6136103 -0.4425083 0
          1.5917783 -0.5564842 0 1.5653807 -0.66949004 0
          1.5345867 -0.78138137 0 1.499538 -0.8920126 0
          1.4600139 -1.001118 0 1.4158325 -1.1084219 0
          1.3688109 -1.2145433 0 1.3241917 -1.3216431 0
          1.2859049 -1.4311471 0 1.2536606 -1.5426127 0
          1.2261049 -1.6553471 0 1.2023352 -1.7689482 0
          <InformationKey name="L2_NORM_RANGE" location="vtkDataArray" length="2">
            <Value index="0">
              0.27152179703
            </Value>
            <Value index="1">
              2.1388753471
            </Value>
          </InformationKey>
        </DataArray>
      </Points>
      <Verts>
        <DataArray type="Int64" Name="connectivity" format="ascii" RangeMin="1e+299" RangeMax="-1e+299">
        </DataArray>
        <DataArray type="Int64" Name="offsets" format="ascii" RangeMin="1e+299" RangeMax="-1e+299">
        </DataArray>
      </Verts>
      <Lines>
        <DataArray type="Int64" Name="connectivity" format="ascii" RangeMin="1e+299" RangeMax="-1e+299">
        </DataArray>
        <DataArray type="Int64" Name="offsets" format="ascii" RangeMin="1e+299" RangeMax="-1e+299">
        </DataArray>
      </Lines>
      <Strips>
        <DataArray type="Int64" Name="connectivity" format="ascii" RangeMin="1e+299" RangeMax="-1e+299">
        </DataArray>
        <DataArray type="Int64" Name="offsets" format="ascii" RangeMin="1e+299" RangeMax="-1e+299">
        </DataArray>
      </Strips>
      <Polys>
        <DataArray type="Int64" Name="connectivity" format="ascii" RangeMin="1e+299" RangeMax="-1e+299">
        </DataArray>
        <DataArray type="Int64" Name="offsets" format="ascii" RangeMin="1e+299" RangeMax="-1e+299">
        </DataArray>
      </Polys>
    </Piece>
  </PolyData>
</VTKFile>
