<?xml version="1.0"?>
<VTKFile type="PolyData" version="0.1" byte_order="LittleEndian" header_type="UInt32" compressor="vtkZLibDataCompressor">
  <PolyData>
    <Piece NumberOfPoints="50" NumberOfVerts="0" NumberOfLines="0" NumberOfStrips="0" NumberOfPolys="0">
      <PointData Normals="Load Orientation">
        <DataArray type="Float64" Name="Load Orientation" NumberOfComponents="3" format="ascii" RangeMin="0.9999999999999999" RangeMax="1">
          0.9995065603657316 0.03141075907812829 0 0.99556196460308 0.09410831331851433 0
          0.9876883405951378 0.15643446504023087 0 0.9759167619387474 0.21814324139654254 0
          0.9602936856769431 0.2789911060392293 0 0.9408807689542255 0.33873792024529137 0
          0.9177546256839811 0.3971478906347806 0 0.8910065241883679 0.45399049973954675 0
          0.8607420270039436 0.5090414157503713 0 0.8270805742745618 0.5620833778521306 0
          0.7901550123756904 0.6129070536529765 0 0.7501110696304596 0.6613118653236518 0
          0.7071067811865476 0.7071067811865476 0 0.6613118653236518 0.7501110696304596 0
          0.6129070536529766 0.7901550123756903 0 0.5620833778521306 0.8270805742745618 0
          0.5090414157503712 0.8607420270039436 0 0.4539904997395468 0.8910065241883678 0
          0.39714789063478056 0.9177546256839811 0 0.3387379202452915 0.9408807689542255 0
          0.2789911060392293 0.9602936856769431 0 0.2181432413965427 0.9759167619387473 0
          0.15643446504023092 0.9876883405951378 0 0.0941083133185145 0.99556196460308 0
          0.031410759078128396 0.9995065603657316 0 -0.03141075907812828 0.9995065603657316 0
          -0.09410831331851416 0.99556196460308 0 -0.1564344650402308 0.9876883405951378 0
          -0.21814324139654256 0.9759167619387474 0 -0.27899110603922916 0.9602936856769431 0
          -0.33873792024529115 0.9408807689542256 0 -0.39714789063478045 0.9177546256839813 0
          -0.45399049973954675 0.8910065241883679 0 -0.5090414157503717 0.8607420270039434 0
          -0.5620833778521307 0.8270805742745617 0 -0.6129070536529763 0.7901550123756905 0
          -0.661311865323652 0.7501110696304594 0 -0.7071067811865475 0.7071067811865476 0
          -0.7501110696304593 0.6613118653236523 0 -0.7901550123756904 0.6129070536529764 0
          -0.8270805742745616 0.5620833778521308 0 -0.8607420270039435 0.5090414157503714 0
          -0.8910065241883678 0.45399049973954686 0 -0.9177546256839809 0.39714789063478106 0
          -0.9408807689542255 0.3387379202452913 0 -0.960293685676943 0.27899110603922955 0
          -0.9759167619387473 0.21814324139654276 0 -0.9876883405951377 0.15643446504023098 0
          -0.99556196460308 0.0941083133185148 0 -0.9995065603657316 0.031410759078128236 0
          <InformationKey name="L2_NORM_RANGE" location="vtkDataArray" length="2">
            <Value index="0">
              1
            </Value>
            <Value index="1">
              1
            </Value>
          </InformationKey>
        </DataArray>
        <DataArray type="Float64" Name="Load Magnitude" format="ascii" RangeMin="0" RangeMax="0.9995835068721366">
          0 0.07996668054977096 0.1566014160766347 0.22990420658059152 0.2998750520616409 0.36651395251978347
          0.4298209079550188 0.4897959183673469 0.5464389837567679 0.599750104123282 0.6497292794668887 0.6963765097875886
          0.7396917950853811 0.7796751353602666 0.8163265306122449 0.8496459808413162 0.8796334860474802 0.9062890462307371
          0.9296126613910871 0.9496043315285297 0.9662640566430654 0.9795918367346939 0.9895876718034152 0.9962515618492295
          0.9995835068721366 0.9995835068721366 0.9962515618492295 0.9895876718034152 0.9795918367346939 0.9662640566430654
          0.9496043315285297 0.929612661391087 0.9062890462307372 0.8796334860474803 0.8496459808413162 0.8163265306122449
          0.7796751353602664 0.7396917950853812 0.6963765097875886 0.6497292794668887 0.599750104123282 0.5464389837567679
          0.48979591836734704 0.4298209079550188 0.36651395251978347 0.2998750520616409 0.2299042065805913 0.15660141607663491
          0.07996668054977096 0
        </DataArray>
      </PointData>
      <CellData>
      </CellData>
      <Points>
        <DataArray type="Float32" Name="Points" NumberOfComponents="3" format="ascii" RangeMin="0.9999999700628108" RangeMax="1.0000000237215827">
          0.99950653 0.031410757 0 0.99556196 0.09410831 0
          0.98768836 0.15643446 0 0.97591674 0.21814324 0
          0.9602937 0.2789911 0 0.9408808 0.33873793 0
          0.91775465 0.3971479 0 0.8910065 0.4539905 0
          0.86074203 0.5090414 0 0.82708055 0.56208336 0
          0.790155 0.61290705 0 0.75011104 0.66131186 0
          0.70710677 0.70710677 0 0.66131186 0.75011104 0
          0.61290705 0.790155 0 0.56208336 0.82708055 0
          0.5090414 0.86074203 0 0.4539905 0.8910065 0
          0.3971479 0.91775465 0 0.33873793 0.9408808 0
          0.2789911 0.9602937 0 0.21814324 0.97591674 0
          0.15643446 0.98768836 0 0.09410831 0.99556196 0
          0.031410757 0.99950653 0 -0.031410757 0.99950653 0
          -0.09410831 0.99556196 0 -0.15643446 0.98768836 0
          -0.21814324 0.97591674 0 -0.2789911 0.9602937 0
          -0.33873793 0.9408808 0 -0.3971479 0.91775465 0
          -0.4539905 0.8910065 0 -0.5090414 0.86074203 0
          -0.56208336 0.82708055 0 -0.61290705 0.790155 0
          -0.66131186 0.75011104 0 -0.70710677 0.70710677 0
          -0.75011104 0.66131186 0 -0.790155 0.61290705 0
          -0.82708055 0.56208336 0 -0.86074203 0.5090414 0
          -0.8910065 0.4539905 0 -0.91775465 0.3971479 0
          -0.9408808 0.33873793 0 -0.9602937 0.2789911 0
          -0.97591674 0.21814324 0 -0.98768836 0.15643446 0
          -0.99556196 0.09410831 0 -0.99950653 0.031410757 0
          <InformationKey name="L2_NORM_RANGE" location="vtkDataArray" length="2">
            <Value index="0">
              0.99999997006
            </Value>
            <Value index="1">
              1.0000000237
            </Value>
          </InformationKey>
        </DataArray>
      </Points>
      <Verts>
        <DataArray type="Int64" Name="connectivity" format="ascii" RangeMin="1e+299" RangeMax="-1e+299">
        </DataArray>
        <DataArray type="Int64" Name="offsets" format="ascii" RangeMin="1e+299" RangeMax="-1e+299">
        </DataArray>
      </Verts>
      <Lines>
        <DataArray type="Int64" Name="connectivity" format="ascii" RangeMin="1e+299" RangeMax="-1e+299">
        </DataArray>
        <DataArray type="Int64" Name="offsets" format="ascii" RangeMin="1e+299" RangeMax="-1e+299">
        </DataArray>
      </Lines>
      <Strips>
        <DataArray type="Int64" Name="connectivity" format="ascii" RangeMin="1e+299" RangeMax="-1e+299">
        </DataArray>
        <DataArray type="Int64" Name="offsets" format="ascii" RangeMin="1e+299" RangeMax="-1e+299">
        </DataArray>
      </Strips>
      <Polys>
        <DataArray type="Int64" Name="connectivity" format="ascii" RangeMin="1e+299" RangeMax="-1e+299">
        </DataArray>
        <DataArray type="Int64" Name="offsets" format="ascii" RangeMin="1e+299" RangeMax="-1e+299">
        </DataArray>
      </Polys>
    </Piece>
  </PolyData>
</VTKFile>
