<VTKFile type="UnstructuredGrid" version="1,0" byte_order="LittleEndian">
<UnstructuredGrid>
<Piece NumberOfPoints="5802" NumberOfCells="5680">
<Points>
<DataArray type="Float64" NumberOfComponents="3" format="ascii">
-0.1100000000000E+01 -0.4731587125634E+01  0.0000000000000E+00
 0.0000000000000E+00 -0.4731587125634E+01  0.0000000000000E+00
 0.1100000000000E+01 -0.4731587125634E+01  0.0000000000000E+00
-0.1191315091097E+01 -0.1825930012610E+01  0.0000000000000E+00
-0.5956575398395E+00 -0.1755172846926E+01  0.0000000000000E+00
 0.5956575512579E+00 -0.1755172847830E+01  0.0000000000000E+00
 0.1191315091097E+01 -0.1825930012610E+01  0.0000000000000E+00
-0.1487255332335E+01  0.3711246317436E+00  0.0000000000000E+00
 0.1487255329206E+01  0.3711246337271E+00  0.0000000000000E+00
-0.6187500000000E+00 -0.4973806884503E+00  0.0000000000000E+00
 0.6187500000000E+00 -0.4973806884503E+00  0.0000000000000E+00
-0.1072500000000E+01 -0.4731587125634E+01  0.0000000000000E+00
-0.1045000000000E+01 -0.4731587125634E+01  0.0000000000000E+00
-0.1017500000000E+01 -0.4731587125634E+01  0.0000000000000E+00
-0.9900000000000E+00 -0.4731587125634E+01  0.0000000000000E+00
-0.9625000000000E+00 -0.4731587125634E+01  0.0000000000000E+00
-0.9350000000000E+00 -0.4731587125634E+01  0.0000000000000E+00
-0.9075000000000E+00 -0.4731587125634E+01  0.0000000000000E+00
-0.8800000000000E+00 -0.4731587125634E+01  0.0000000000000E+00
-0.8525000000000E+00 -0.4731587125634E+01  0.0000000000000E+00
-0.8250000000000E+00 -0.4731587125634E+01  0.0000000000000E+00
-0.7975000000000E+00 -0.4731587125634E+01  0.0000000000000E+00
-0.7700000000000E+00 -0.4731587125634E+01  0.0000000000000E+00
-0.7425000000000E+00 -0.4731587125634E+01  0.0000000000000E+00
-0.7150000000000E+00 -0.4731587125634E+01  0.0000000000000E+00
-0.6875000000000E+00 -0.4731587125634E+01  0.0000000000000E+00
-0.6600000000000E+00 -0.4731587125634E+01  0.0000000000000E+00
-0.6325000000000E+00 -0.4731587125634E+01  0.0000000000000E+00
-0.6050000000000E+00 -0.4731587125634E+01  0.0000000000000E+00
-0.5775000000000E+00 -0.4731587125634E+01  0.0000000000000E+00
-0.5500000000000E+00 -0.4731587125634E+01  0.0000000000000E+00
-0.5225000000000E+00 -0.4731587125634E+01  0.0000000000000E+00
-0.4950000000000E+00 -0.4731587125634E+01  0.0000000000000E+00
-0.4675000000000E+00 -0.4731587125634E+01  0.0000000000000E+00
-0.4400000000000E+00 -0.4731587125634E+01  0.0000000000000E+00
-0.4125000000000E+00 -0.4731587125634E+01  0.0000000000000E+00
-0.3850000000000E+00 -0.4731587125634E+01  0.0000000000000E+00
-0.3575000000000E+00 -0.4731587125634E+01  0.0000000000000E+00
-0.3300000000000E+00 -0.4731587125634E+01  0.0000000000000E+00
-0.3025000000000E+00 -0.4731587125634E+01  0.0000000000000E+00
-0.2750000000000E+00 -0.4731587125634E+01  0.0000000000000E+00
-0.2475000000000E+00 -0.4731587125634E+01  0.0000000000000E+00
-0.2200000000000E+00 -0.4731587125634E+01  0.0000000000000E+00
-0.1925000000000E+00 -0.4731587125634E+01  0.0000000000000E+00
-0.1650000000000E+00 -0.4731587125634E+01  0.0000000000000E+00
-0.1375000000000E+00 -0.4731587125634E+01  0.0000000000000E+00
-0.1100000000000E+00 -0.4731587125634E+01  0.0000000000000E+00
-0.8250000000000E-01 -0.4731587125634E+01  0.0000000000000E+00
-0.5500000000000E-01 -0.4731587125634E+01  0.0000000000000E+00
-0.2750000000000E-01 -0.4731587125634E+01  0.0000000000000E+00
 0.2750000000000E-01 -0.4731587125634E+01  0.0000000000000E+00
 0.5500000000000E-01 -0.4731587125634E+01  0.0000000000000E+00
 0.8250000000000E-01 -0.4731587125634E+01  0.0000000000000E+00
 0.1100000000000E+00 -0.4731587125634E+01  0.0000000000000E+00
 0.1375000000000E+00 -0.4731587125634E+01  0.0000000000000E+00
 0.1650000000000E+00 -0.4731587125634E+01  0.0000000000000E+00
 0.1925000000000E+00 -0.4731587125634E+01  0.0000000000000E+00
 0.2200000000000E+00 -0.4731587125634E+01  0.0000000000000E+00
 0.2475000000000E+00 -0.4731587125634E+01  0.0000000000000E+00
 0.2750000000000E+00 -0.4731587125634E+01  0.0000000000000E+00
 0.3025000000000E+00 -0.4731587125634E+01  0.0000000000000E+00
 0.3300000000000E+00 -0.4731587125634E+01  0.0000000000000E+00
 0.3575000000000E+00 -0.4731587125634E+01  0.0000000000000E+00
 0.3850000000000E+00 -0.4731587125634E+01  0.0000000000000E+00
 0.4125000000000E+00 -0.4731587125634E+01  0.0000000000000E+00
 0.4400000000000E+00 -0.4731587125634E+01  0.0000000000000E+00
 0.4675000000000E+00 -0.4731587125634E+01  0.0000000000000E+00
 0.4950000000000E+00 -0.4731587125634E+01  0.0000000000000E+00
 0.5225000000000E+00 -0.4731587125634E+01  0.0000000000000E+00
 0.5500000000000E+00 -0.4731587125634E+01  0.0000000000000E+00
 0.5775000000000E+00 -0.4731587125634E+01  0.0000000000000E+00
 0.6050000000000E+00 -0.4731587125634E+01  0.0000000000000E+00
 0.6325000000000E+00 -0.4731587125634E+01  0.0000000000000E+00
 0.6600000000000E+00 -0.4731587125634E+01  0.0000000000000E+00
 0.6875000000000E+00 -0.4731587125634E+01  0.0000000000000E+00
 0.7150000000000E+00 -0.4731587125634E+01  0.0000000000000E+00
 0.7425000000000E+00 -0.4731587125634E+01  0.0000000000000E+00
 0.7700000000000E+00 -0.4731587125634E+01  0.0000000000000E+00
 0.7975000000000E+00 -0.4731587125634E+01  0.0000000000000E+00
 0.8250000000000E+00 -0.4731587125634E+01  0.0000000000000E+00
 0.8525000000000E+00 -0.4731587125634E+01  0.0000000000000E+00
 0.8800000000000E+00 -0.4731587125634E+01  0.0000000000000E+00
 0.9075000000000E+00 -0.4731587125634E+01  0.0000000000000E+00
 0.9350000000000E+00 -0.4731587125634E+01  0.0000000000000E+00
 0.9625000000000E+00 -0.4731587125634E+01  0.0000000000000E+00
 0.9900000000000E+00 -0.4731587125634E+01  0.0000000000000E+00
 0.1017500000000E+01 -0.4731587125634E+01  0.0000000000000E+00
 0.1045000000000E+01 -0.4731587125634E+01  0.0000000000000E+00
 0.1072500000000E+01 -0.4731587125634E+01  0.0000000000000E+00
-0.1161675590434E+01 -0.1821293974842E+01  0.0000000000000E+00
-0.1132018469080E+01 -0.1816772081031E+01  0.0000000000000E+00
-0.1102344135527E+01 -0.1812364599475E+01  0.0000000000000E+00
-0.1072653001422E+01 -0.1808071792594E+01  0.0000000000000E+00
-0.1042945459471E+01 -0.1803893913795E+01  0.0000000000000E+00
-0.1013221952450E+01 -0.1799831217138E+01  0.0000000000000E+00
-0.9834829017084E+00 -0.1795883946982E+01  0.0000000000000E+00
-0.9537287316532E+00 -0.1792052341512E+01  0.0000000000000E+00
-0.9239598612408E+00 -0.1788336631619E+01  0.0000000000000E+00
-0.8941767210493E+00 -0.1784737043031E+01  0.0000000000000E+00
-0.8643797539566E+00 -0.1781253796152E+01  0.0000000000000E+00
-0.8345693957871E+00 -0.1777887103664E+01  0.0000000000000E+00
-0.8047460850418E+00 -0.1774637171701E+01  0.0000000000000E+00
-0.7749102599775E+00 -0.1771504199483E+01  0.0000000000000E+00
-0.7450623578572E+00 -0.1768488379244E+01  0.0000000000000E+00
-0.7152028352234E+00 -0.1765589898169E+01  0.0000000000000E+00
-0.6853321404180E+00 -0.1762808935500E+01  0.0000000000000E+00
-0.6554507240472E+00 -0.1760145663610E+01  0.0000000000000E+00
-0.6255590388957E+00 -0.1757600247935E+01  0.0000000000000E+00
-0.5659320403842E+00 -0.1752877555980E+01  0.0000000000000E+00
-0.5361977827764E+00 -0.1750699115345E+01  0.0000000000000E+00
-0.5064551822954E+00 -0.1748637656849E+01  0.0000000000000E+00
-0.4767046834532E+00 -0.1746693307634E+01  0.0000000000000E+00
-0.4469467825907E+00 -0.1744866190914E+01  0.0000000000000E+00
-0.4171818756954E+00 -0.1743156416506E+01  0.0000000000000E+00
-0.3874104734057E+00 -0.1741564093885E+01  0.0000000000000E+00
-0.3576330176963E+00 -0.1740089321191E+01  0.0000000000000E+00
-0.3278499563594E+00 -0.1738732189839E+01  0.0000000000000E+00
-0.2980617833702E+00 -0.1737492785992E+01  0.0000000000000E+00
-0.2682689204519E+00 -0.1736371185422E+01  0.0000000000000E+00
-0.2384718656336E+00 -0.1735367459648E+01  0.0000000000000E+00
-0.2086710716336E+00 -0.1734481671049E+01  0.0000000000000E+00
-0.1788669979735E+00 -0.1733713874997E+01  0.0000000000000E+00
-0.1490601279746E+00 -0.1733064120054E+01  0.0000000000000E+00
-0.1192509059245E+00 -0.1732532446511E+01  0.0000000000000E+00
-0.8943981808141E-01 -0.1732118888112E+01  0.0000000000000E+00
-0.5962732433722E-01 -0.1731823470688E+01  0.0000000000000E+00
-0.2981389296327E-01 -0.1731646212812E+01  0.0000000000000E+00
 0.5727055635285E-08 -0.1731587125634E+01  0.0000000000000E+00
 0.2981390441730E-01 -0.1731646212857E+01  0.0000000000000E+00
 0.5962733579097E-01 -0.1731823470779E+01  0.0000000000000E+00
 0.8943982953471E-01 -0.1732118888248E+01  0.0000000000000E+00
 0.1192509173772E+00 -0.1732532446692E+01  0.0000000000000E+00
 0.1490601394265E+00 -0.1733064120281E+01  0.0000000000000E+00
 0.1788670094244E+00 -0.1733713875269E+01  0.0000000000000E+00
 0.2086710830833E+00 -0.1734481671367E+01  0.0000000000000E+00
 0.2384718770819E+00 -0.1735367460011E+01  0.0000000000000E+00
 0.2682689318987E+00 -0.1736371185830E+01  0.0000000000000E+00
 0.2980617948153E+00 -0.1737492786445E+01  0.0000000000000E+00
 0.3278499678026E+00 -0.1738732190338E+01  0.0000000000000E+00
 0.3576330291375E+00 -0.1740089321735E+01  0.0000000000000E+00
 0.3874104848446E+00 -0.1741564094474E+01  0.0000000000000E+00
 0.4171818871319E+00 -0.1743156417141E+01  0.0000000000000E+00
 0.4469467940246E+00 -0.1744866191594E+01  0.0000000000000E+00
 0.4767046948843E+00 -0.1746693308359E+01  0.0000000000000E+00
 0.5064551937236E+00 -0.1748637657619E+01  0.0000000000000E+00
 0.5361977942015E+00 -0.1750699116160E+01  0.0000000000000E+00
 0.5659320518060E+00 -0.1752877556840E+01  0.0000000000000E+00
 0.6255590497397E+00 -0.1757600248837E+01  0.0000000000000E+00
 0.6554507343169E+00 -0.1760145664505E+01  0.0000000000000E+00
 0.6853321501138E+00 -0.1762808936384E+01  0.0000000000000E+00
 0.7152028443456E+00 -0.1765589899036E+01  0.0000000000000E+00
 0.7450623664059E+00 -0.1768488380091E+01  0.0000000000000E+00
 0.7749102679531E+00 -0.1771504200305E+01  0.0000000000000E+00
 0.8047460924447E+00 -0.1774637172493E+01  0.0000000000000E+00
 0.8345694026177E+00 -0.1777887104422E+01  0.0000000000000E+00
[...]
<PointData Vectors="'U'">
<DataArray type="Float64" Name="U" NumberOfComponents="2" ComponentName0="U1" ComponentName1="U2" format="ascii">
 0.4816650841611E-37  0.1214256741747E-36
-0.2910866331962E-37 -0.2191319703130E-37
 0.2878071603269E-37 -0.7276675674357E-37
 0.2337329882772E-01  0.4801533677524E-03
 0.2645603166391E-01 -0.4526883101528E-02
 0.3449536680549E-01 -0.2292077799866E-01
 0.4254924611015E-01 -0.4752778869589E-01
 0.3766961507020E+00  0.7499080967011E-01
 0.8385728199352E+00 -0.6146795257457E+00
 0.9652801180934E-01 -0.1996490369201E+00
 0.5510768517396E+00 -0.4832624597947E+00
-0.1884345027965E-37  0.7148793029173E-37
-0.1745112929859E-37  0.6046079678321E-37
-0.1848988741460E-37  0.5535202350322E-37
-0.1971215351080E-37  0.5199301747149E-37
-0.2080455336037E-37  0.4931013813762E-37
-0.2174791515754E-37  0.4693760657675E-37
-0.2256647299158E-37  0.4472465832780E-37
-0.2328496471900E-37  0.4260041144006E-37
-0.2392253110997E-37  0.4052823658630E-37
-0.2449327335518E-37  0.3848781858054E-37
-0.2500761841831E-37  0.3646725458205E-37
-0.2547343101555E-37  0.3445925560767E-37
-0.2589678718531E-37  0.3245918943366E-37
-0.2628249220211E-37  0.3046401613249E-37
-0.2663442712911E-37  0.2847168262267E-37
-0.2695578406572E-37  0.2648076478877E-37
-0.2724922882962E-37  0.2449025164494E-37
-0.2751701600206E-37  0.2249941013754E-37
-0.2776107096842E-37  0.2050770111540E-37
-0.2798299104497E-37  0.1851475232002E-37
-0.2818467817507E-37  0.1651304528152E-37
-0.2836698649590E-37  0.1450954527454E-37
-0.2853097676991E-37  0.1250405745381E-37
-0.2867761525870E-37  0.1049644555112E-37
-0.2880775194362E-37  0.8486613388603E-38
-0.2892213280005E-37  0.6474502857354E-38
-0.2902141133313E-37  0.4460080916388E-38
-0.2910615764616E-37  0.2443343426307E-38
-0.2917686619691E-37  0.4243097244254E-39
-0.2923396227405E-37 -0.1596981031497E-38
-0.2927780715407E-37 -0.3620467112560E-38
-0.2930870266125E-37 -0.5646071691690E-38
-0.2932689476733E-37 -0.7673699800852E-38
-0.2933257664749E-37 -0.9703242041715E-38
-0.2932589123475E-37 -0.1173457698494E-37
-0.2930693322435E-37 -0.1376757056983E-37
-0.2927575074334E-37 -0.1580208118261E-37
-0.2923234661120E-37 -0.1783795907881E-37
-0.2917667925446E-37 -0.1987504994646E-37
-0.2902816996013E-37 -0.2395224349446E-37
-0.2893502681330E-37 -0.2599203527608E-37
-0.2882901766368E-37 -0.2803242417899E-37
-0.2870988177714E-37 -0.3007327089336E-37
-0.2857731287059E-37 -0.3211444825770E-37
-0.2843095769198E-37 -0.3415584644777E-37
-0.2827041421222E-37 -0.3619737457496E-37
-0.2809522922347E-37 -0.3823896854554E-37
-0.2790489551691E-37 -0.4028059392766E-37
-0.2769884829260E-37 -0.4232225263431E-37
-0.2747646081749E-37 -0.4436399184649E-37
-0.2723703934684E-37 -0.4640590733175E-37
-0.2697981661568E-37 -0.4844815864729E-37
-0.2670394444548E-37 -0.5049097579460E-37
-0.2640848444994E-37 -0.5253467440076E-37
-0.2609239680750E-37 -0.5457967526806E-37
-0.2575452709020E-37 -0.5662651804240E-37
-0.2539358947598E-37 -0.5867589604991E-37
-0.2500814839198E-37 -0.6072868596203E-37
-0.2459660231330E-37 -0.6278598285866E-37
-0.2415763054866E-37 -0.6484197330403E-37
-0.2368860971224E-37 -0.6690561660956E-37
-0.2318726713948E-37 -0.6897904122918E-37
-0.2265087271677E-37 -0.7106501770023E-37
-0.2207624214988E-37 -0.7316710345438E-37
-0.2145962111160E-37 -0.7528991553134E-37
-0.2079652571898E-37 -0.7743953065437E-37
-0.2008152052653E-37 -0.7962408156758E-37
-0.1930790335968E-37 -0.8185467549940E-37
-0.1846725097013E-37 -0.8414684979943E-37
-0.1754875784477E-37 -0.8652297029535E-37
-0.1653828325988E-37 -0.8901636745916E-37
-0.1541705910979E-37 -0.9167887451823E-37
-0.1416032368980E-37 -0.9459555717316E-37
-0.1273769221412E-37 -0.9791616563476E-37
-0.1112422105330E-37 -0.1019305956085E-36
-0.9366336477860E-38 -0.1072808097240E-36
-0.7948025977145E-38 -0.1157004144748E-36
-0.1013390693600E-37 -0.1334857291998E-36
 0.2361712518857E-01  0.8321141072477E-03
 0.2379401161862E-01  0.8944910521604E-03
 0.2395509465651E-01  0.8239921869198E-03
 0.2410757703266E-01  0.6782223566610E-03
 0.2425527625042E-01  0.4825952719631E-03
 0.2440028462807E-01  0.2509320362166E-03
 0.2454385678343E-01 -0.8310011746174E-05
 0.2468677403445E-01 -0.2894922022622E-03
 0.2482955006432E-01 -0.5886130891610E-03
 0.2497254515944E-01 -0.9026980875821E-03
 0.2511602981473E-01 -0.1229457964776E-02
 0.2526021971814E-01 -0.1567084461784E-02
 0.2540529455245E-01 -0.1914120291277E-02
 0.2555140788682E-01 -0.2269372400609E-02
 0.2569869194909E-01 -0.2631851267327E-02
 0.2584725931656E-01 -0.3000725900655E-02
 0.2599720285584E-01 -0.3375288762809E-02
 0.2614859695687E-01 -0.3754921211823E-02
 0.2630149347462E-01 -0.4139054808395E-02
 0.2661081275276E-01 -0.4916383590432E-02
 0.2676826305042E-01 -0.5309826214312E-02
 0.2692800246341E-01 -0.5706582464557E-02
 0.2708999080000E-01 -0.6106409554346E-02
 0.2725423002014E-01 -0.6509098136921E-02
 0.2742074444272E-01 -0.6914482555183E-02
 0.2758956317807E-01 -0.7322430880147E-02
 0.2776071562610E-01 -0.7732843901387E-02
 0.2793422836643E-01 -0.8145651107961E-02
 0.2811012376246E-01 -0.8560807943972E-02
 0.2828842020728E-01 -0.8978295872884E-02
 0.2846913115247E-01 -0.9398119199938E-02
 0.2865226593712E-01 -0.9820306039455E-02
 0.2883782970070E-01 -0.1024490715601E-01
 0.2902582356840E-01 -0.1067199553720E-01
 0.2921624539727E-01 -0.1110166732396E-01
 0.2940908965859E-01 -0.1153404087014E-01
 0.2960434830504E-01 -0.1196925811615E-01
 0.2980201101718E-01 -0.1240748463919E-01
 0.3000206574444E-01 -0.1284891044823E-01
 0.3020449927298E-01 -0.1329375091494E-01
 0.3040929777241E-01 -0.1374224774210E-01
 0.3061644737230E-01 -0.1419467009238E-01
 0.3082593482432E-01 -0.1465131601236E-01
 0.3103774820399E-01 -0.1511251407053E-01
 0.3125187734176E-01 -0.1557862456878E-01
 0.3146831500853E-01 -0.1605004259486E-01
 0.3168705703417E-01 -0.1652719901636E-01
 0.3190810344470E-01 -0.1701056404157E-01
 0.3213145897427E-01 -0.1750064989229E-01
 0.3235713318543E-01 -0.1799801327491E-01
 0.3258514167896E-01 -0.1850326118785E-01
 0.3281550484680E-01 -0.1901705270042E-01
 0.3304824791885E-01 -0.1954010561184E-01
 0.3328339850518E-01 -0.2007320058874E-01
 0.3352098159122E-01 -0.2061718391514E-01
 0.3376101284157E-01 -0.2117297184072E-01
 0.3400348195330E-01 -0.2174153822854E-01
 0.3424833172755E-01 -0.2232386975676E-01
 0.3474689649788E-01 -0.2353895620843E-01
 0.3500332916620E-01 -0.2417580662952E-01
 0.3526441113680E-01 -0.2483308891756E-01
 0.3553030151304E-01 -0.2551287678769E-01
 0.3580132813399E-01 -0.2621749915304E-01
 0.3607797704927E-01 -0.2694964297303E-01
 0.3636090358739E-01 -0.2771245144570E-01
 0.3665097225321E-01 -0.2850965519994E-01
 0.3694932505336E-01 -0.2934575367192E-01
 0.3725749082717E-01 -0.3022627993788E-01
 0.3757755714362E-01 -0.3115820117341E-01
 0.3791244150876E-01 -0.3215054907889E-01
 0.3826632210283E-01 -0.3321546119863E-01
 0.3864531981417E-01 -0.3436998932887E-01
 0.3905856022149E-01 -0.3563942994471E-01
 0.3951976852208E-01 -0.3706388523911E-01
 0.4004942261158E-01 -0.3871238139165E-01
 0.4067789043352E-01 -0.4071684938639E-01
 0.4144626154752E-01 -0.4337911779575E-01
-0.1585841515380E-01 -0.1839742121457E-01
-0.4024990356534E-01 -0.2629703392111E-01
-0.5658988031632E-01 -0.2533189436510E-01
-0.6515499167386E-01 -0.1935410340140E-01
-0.6693881879006E-01 -0.9773127935870E-02
-0.6273823940045E-01  0.2636122123308E-02
-0.5304596807781E-01  0.1680655692003E-01
-0.3839332960678E-01  0.3187314920600E-01
-0.1923221719183E-01  0.4736765053653E-01
 0.4139766668021E-02  0.6288128545418E-01
 0.3148823017552E-01  0.7796526827603E-01
 0.6257207772627E-01  0.9210508108730E-01
 0.9710366380277E-01  0.1048821860487E+00
 0.1347609327793E+00  0.1157984530555E+00
 0.1751416553601E+00  0.1241953385495E+00
 0.2177178101191E+00  0.1295131770674E+00
 0.2619858971802E+00  0.1319014560439E+00
 0.3063012390152E+00  0.1258427098608E+00
 0.3462117138893E+00  0.1064704652701E+00
 0.3893429801766E+00  0.4961728240454E-01
 0.3987381816676E+00  0.2276666898024E-01
 0.4054933571356E+00 -0.5043210551246E-02
 0.4095386805724E+00 -0.3362532146529E-01
 0.4110011914029E+00 -0.6287688766594E-01
 0.4106451202845E+00 -0.9293995752502E-01
 0.4090284432832E+00 -0.1242007258086E+00
 0.4066126522519E+00 -0.1573099845697E+00
 0.4038816888430E+00 -0.1932927414027E+00
 0.4015069870474E+00 -0.2338721575778E+00
 0.4012435008416E+00 -0.2818548012264E+00
 0.4042227587277E+00 -0.3372040614263E+00
 0.4102643338434E+00 -0.3964484853600E+00
 0.4192245349253E+00 -0.4567248271604E+00
 0.4310508555261E+00 -0.5159437561523E+00
 0.4456905596544E+00 -0.5725498930674E+00
 0.4630509086411E+00 -0.6253927500816E+00
 0.4829804360487E+00 -0.6736320400098E+00
 0.5052576414862E+00 -0.7166669501722E+00
 0.5295743716997E+00 -0.7540859361728E+00
 0.5555057803271E+00 -0.7856232966013E+00
 0.5825115483000E+00 -0.8110771141309E+00
 0.6100709154068E+00 -0.8303478835105E+00
 0.6376903267612E+00 -0.8434382065392E+00
 0.6648771758469E+00 -0.8504485147014E+00
 0.6911205637729E+00 -0.8515814289465E+00
 0.7158722951683E+00 -0.8471539572472E+00
 0.7385256782255E+00 -0.8376186951315E+00
 0.7584050935579E+00 -0.8235852292158E+00
 0.7748285396176E+00 -0.8057790415395E+00
 0.7874188644228E+00 -0.7847358813775E+00
 0.7965102815791E+00 -0.7606824658481E+00
 0.8030241058999E+00 -0.7340869526284E+00
 0.8081741145777E+00 -0.7059227395261E+00
 0.8130481203690E+00 -0.6780875800219E+00
 0.8178261946478E+00 -0.6542293631043E+00
 0.8227101835203E+00 -0.6370458183063E+00
 0.8280162366532E+00 -0.6258091140149E+00
 0.8334401747195E+00 -0.6187311662948E+00
 0.8462958924592E+00 -0.6128044160637E+00
 0.8511435719846E+00 -0.6149013421018E+00
 0.8515593396648E+00 -0.6187110747602E+00
 0.8467027651699E+00 -0.6226362087015E+00
 0.8366316787928E+00 -0.6259445059414E+00
 0.8213466159536E+00 -0.6273982678092E+00
 0.8009903652051E+00 -0.6261624624683E+00
 0.7758577109055E+00 -0.6216296714495E+00
 0.7462565336521E+00 -0.6132150667932E+00
 0.7124672946035E+00 -0.6003042320905E+00
 0.6747299480557E+00 -0.5823637716314E+00
 0.6331894580218E+00 -0.5585972939480E+00
 0.5879674885205E+00 -0.5276070902938E+00
 0.5394313327380E+00 -0.4872978671874E+00
 0.4880118024721E+00 -0.4372117654849E+00
 0.4328401151639E+00 -0.3806963359233E+00
 0.3715981125566E+00 -0.3181852559448E+00
 0.3000669075732E+00 -0.2471228603027E+00
 0.2107377773265E+00 -0.1567944463984E+00
 0.7982983666214E-04  0.1965119947325E-03
 0.1457371255545E-03  0.3724666361123E-03
 0.2401136501570E-03  0.5542973275069E-03
 0.3690137409987E-03  0.7384983397748E-03
 0.5356954431581E-03  0.9234824440092E-03
 0.7412722963420E-03  0.1107723843489E-02
 0.9861524999336E-03  0.1289928940503E-02
 0.1270283325338E-02  0.1468998806738E-02
 0.1593368051718E-02  0.1643981633130E-02
 0.1954955388177E-02  0.1814038799376E-02
 0.2354497077570E-02  0.1978414345328E-02
 0.2791378761335E-02  0.2136409321798E-02
 0.3264938581569E-02  0.2287359849380E-02
 0.3774474495003E-02  0.2430617166724E-02
 0.4319244684977E-02  0.2565529864072E-02
 0.4898464032014E-02  0.2691428259292E-02
 0.5511302210159E-02  0.2807611087193E-02
 0.6156842112961E-02  0.2913327849798E-02
 0.6834118400457E-02  0.3007776004909E-02
 0.7542044441501E-02  0.3090081630951E-02
 0.8279419061993E-02  0.3159293614147E-02
 0.9044898237443E-02  0.3214371455287E-02
 0.9836968548896E-02  0.3254170365239E-02
 0.1065392374696E-01  0.3277621514923E-02
 0.1149378165480E-01  0.3284691700728E-02
 0.1235414619333E-01  0.3275855095976E-02
 0.1323210848643E-01  0.3251507972962E-02
 0.1412421625161E-01  0.3211734109629E-02
 0.1502648661229E-01  0.3156304105581E-02
 0.1593440333773E-01  0.3084819595425E-02
 0.1684289258131E-01  0.2996886282233E-02
 0.1774623667871E-01  0.2892283056681E-02
 0.1863798086945E-01  0.2771222372207E-02
 0.1951105914683E-01  0.2633370043244E-02
 0.2035770901068E-01  0.2477029906112E-02
 0.2116888799831E-01  0.2299836254067E-02
 0.2193262292666E-01  0.2097789668797E-02
 0.2263397101982E-01  0.1863281869272E-02
 0.2323642143958E-01  0.1579931620750E-02
 0.2373263584961E-01  0.1183083258909E-02
 0.3486750305279E-01 -0.4287287001480E-01
 0.3198773029007E-01 -0.3992929186163E-01
 0.2957318044227E-01 -0.3773132482593E-01
 0.2758343366017E-01 -0.3586228630118E-01
 0.2583413330998E-01 -0.3420358244459E-01
 0.2426382853485E-01 -0.3269221040229E-01
 0.2282916193878E-01 -0.3129099968934E-01
 0.2150413829453E-01 -0.2997741891609E-01
 0.2027053182722E-01 -0.2873805946530E-01
 0.1911468253372E-01 -0.2756327218295E-01
 0.1802585857145E-01 -0.2644409750127E-01
 0.1699593154250E-01 -0.2537308720190E-01
 0.1601868104875E-01 -0.2434455806526E-01
 0.1508910645212E-01 -0.2335416812761E-01
 0.1420290448840E-01 -0.2239832870183E-01
 0.1335609727400E-01 -0.2147346667250E-01
 0.1254488447676E-01 -0.2057527977693E-01
 0.1176585466070E-01 -0.1969832329472E-01
 0.1101656401678E-01 -0.1883668306423E-01
 0.1029582815528E-01 -0.1798610990163E-01
 0.9603020907639E-02 -0.1714393891556E-01
 0.8937647629612E-02 -0.1630824232525E-01
 0.8299297974770E-02 -0.1547751176170E-01
 0.7687621029557E-02 -0.1465054290621E-01
 0.7102267086447E-02 -0.1382632766876E-01
 0.6542907418585E-02 -0.1300407541345E-01
 0.6009149753530E-02 -0.1218310508600E-01
 0.5500529971042E-02 -0.1136285148984E-01
 0.5016464730029E-02 -0.1054282652840E-01
 0.4556201588407E-02 -0.9722586173219E-02
 0.4118757675778E-02 -0.8901694215922E-02
 0.3702838636696E-02 -0.8079675515047E-02
 0.3306722628875E-02 -0.7255946555593E-02
 0.2928097326059E-02 -0.6429712036125E-02
 0.2563785579915E-02 -0.5599797974144E-02
 0.2209374330336E-02 -0.4764335107550E-02
 0.1858202631744E-02 -0.3920215957192E-02
 0.1500680585718E-02 -0.3061718323323E-02
 0.1117241651944E-02 -0.2176488114100E-02
 0.6778285574284E-03 -0.1246930902885E-02
 0.1036944597035E+00 -0.2114341729289E+00
 0.1110862268971E+00 -0.2234765600876E+00
 0.1187761212242E+00 -0.2357275832617E+00
 0.1267918703944E+00 -0.2481503039099E+00
 0.1351521685618E+00 -0.2607043715824E+00
 0.1438704486223E+00 -0.2733461382755E+00
 0.1529561368283E+00 -0.2860291763526E+00
 0.1624149339620E+00 -0.2987045642489E+00
 0.1722487541621E+00 -0.3113213644977E+00
 0.1824557662602E+00 -0.3238274250945E+00
 0.1930304314225E+00 -0.3361700155646E+00
 0.2039636291388E+00 -0.3482964718070E+00
 0.2152428387439E+00 -0.3601546554996E+00
 0.2268523037223E+00 -0.3716935389901E+00
 0.2387731699924E+00 -0.3828639097720E+00
 0.2509836716943E+00 -0.3936190785168E+00
 0.2634593507248E+00 -0.4039155070869E+00
 0.2761733247653E+00 -0.4137133609893E+00
 0.2890965894274E+00 -0.4229769778811E+00
 0.3021983434744E+00 -0.4316752551964E+00
 0.3154463221537E+00 -0.4397819525193E+00
 0.3288071176488E+00 -0.4472758777959E+00
 0.3422464990192E+00 -0.4541410408221E+00
 0.3557297237657E+00 -0.4603667672671E+00
 0.3692218403253E+00 -0.4659477397032E+00
 0.3826879742430E+00 -0.4708839672554E+00
 0.3960935920908E+00 -0.4751806852561E+00
 0.4094047319537E+00 -0.4788481839502E+00
 0.4225882156241E+00 -0.4819015688355E+00
 0.4356118014419E+00 -0.4843604318257E+00
 0.4484442993971E+00 -0.4862484260776E+00
 0.4610556802381E+00 -0.4875929790663E+00
 0.4734172739506E+00 -0.4884252642587E+00
 0.4855020571746E+00 -0.4887800497920E+00
 0.4972851257219E+00 -0.4886955387786E+00
 0.5087441648353E+00 -0.4882132727714E+00
 0.5198603736803E+00 -0.4873783087518E+00
 0.5306199295700E+00 -0.4862390431897E+00
 0.5410172643075E+00 -0.4848464752224E+00
 0.8088152310849E-01 -0.1877529799348E+00
 0.6601893166390E-01 -0.1758631767726E+00
 0.5200127828508E-01 -0.1638859238126E+00
 0.3888308389250E-01 -0.1518674132647E+00
 0.2671392955630E-01 -0.1398762652303E+00
 0.1554253534663E-01 -0.1279785566651E+00
 0.5440263800816E-02 -0.1162345497233E+00
-0.3508898083313E-02 -0.1046980797149E+00
-0.1121381030930E-01 -0.9341735047120E-01
-0.1757722906223E-01 -0.8243883624893E-01
-0.2249197570581E-01 -0.7181450615334E-01
-0.2583339351137E-01 -0.6160847424783E-01
-0.2745240721800E-01 -0.5189830616202E-01
-0.2717505939669E-01 -0.4277057024081E-01
-0.2480626556354E-01 -0.3431539581281E-01
-0.2013488672587E-01 -0.2662006790764E-01
-0.1293794795615E-01 -0.1975697776522E-01
-0.2970389859306E-02 -0.1377633825872E-01
 0.1005057868739E-01 -0.8702227510838E-02
 0.5304729460759E+00 -0.4547521458671E+00
 0.5093349568531E+00 -0.4263389327399E+00
 0.4876148227407E+00 -0.3979695807751E+00
 0.4652736171504E+00 -0.3696899279828E+00
 0.4422932664207E+00 -0.3415617949363E+00
 0.4186665630221E+00 -0.3136498899590E+00
 0.3943791269608E+00 -0.2860276071742E+00
 0.3694241343266E+00 -0.2587837515309E+00
 0.3438124062939E+00 -0.2320288627111E+00
 0.3175774394740E+00 -0.2059003846319E+00
 0.2907700945648E+00 -0.1805626010960E+00
 0.2634440905258E+00 -0.1562015770220E+00
 0.2356452503493E+00 -0.1330202965778E+00
 0.2074170646597E+00 -0.1112373975659E+00
 0.1788192632996E+00 -0.9108639323172E-01
 0.1499388171331E+00 -0.7280925570979E-01
 0.1208870706092E+00 -0.5664656396520E-01
 0.9181453555734E-01 -0.4282872556046E-01
 0.6292971430922E-01 -0.3155254663702E-01
 0.1005540445828E+00 -0.1928902312479E+00
 0.1059478114081E+00 -0.1845197299021E+00
 0.1128365441187E+00 -0.1746781467612E+00
 0.1212450254087E+00 -0.1635166324006E+00
 0.1311645965918E+00 -0.1511925695502E+00
 0.1425555242896E+00 -0.1378783524852E+00
 0.1553450456162E+00 -0.1237575963928E+00
 0.1694258209406E+00 -0.1090189156400E+00
 0.1846568268980E+00 -0.9384763670684E-01
 0.2008670648575E+00 -0.7841646338003E-01
 0.2178622503262E+00 -0.6287579447771E-01
 0.2354344449695E+00 -0.4734454403323E-01
 0.2533742668720E+00 -0.3190254284941E-01
 0.2714847278934E+00 -0.1658589251875E-01
 0.2895948600706E+00 -0.1386845035600E-02
 0.3075702968597E+00  0.1374041150657E-01
 0.3253173215414E+00  0.2886756020480E-01
 0.3427779072503E+00  0.4407503781193E-01
 0.3599144700367E+00  0.5943243964764E-01
 0.5830405072287E+00 -0.5055370282251E+00
 0.6141870067637E+00 -0.5264661408979E+00
 0.6442500794691E+00 -0.5458579980269E+00
 0.6730040152163E+00 -0.5635443982688E+00
 0.7002308578876E+00 -0.5793740783234E+00
 0.7257194784166E+00 -0.5932234607079E+00
 0.7492676489287E+00 -0.6050019181283E+00
 0.7706853259745E+00 -0.6146568909207E+00
 0.7897984684061E+00 -0.6221786093261E+00
 0.8064536168576E+00 -0.6276047023225E+00
 0.8205236691894E+00 -0.6310247232098E+00
 0.8319154867338E+00 -0.6325845426296E+00
 0.8405801813063E+00 -0.6324903929053E+00
 0.8465271645645E+00 -0.6310120395390E+00
 0.8498431951891E+00 -0.6284839503854E+00
 0.8507173308736E+00 -0.6253020527547E+00
 0.8494712096362E+00 -0.6219112905479E+00
 0.8465874021329E+00 -0.6187733769861E+00
 0.8427142401312E+00 -0.6162965999468E+00
 0.5998161313716E-04  0.1698351113458E-03
 0.1296500118943E-03  0.3425456957751E-03
 0.2233984127391E-03  0.5117771394140E-03
 0.3527510323206E-03  0.6823912696124E-03
 0.5199755486428E-03  0.8529741696529E-03
 0.7263831572856E-03  0.1022514092012E-02
 0.9723183353470E-03  0.1189926694629E-02
 0.1257722435600E-02  0.1354240673029E-02
 0.1582281820670E-02  0.1514580356125E-02
 0.1945533719796E-02  0.1670155296462E-02
 0.2346919855597E-02  0.1820241225204E-02
 0.2785818009964E-02  0.1964161293207E-02
 0.3261560166654E-02  0.2101268508667E-02
 0.3773439627309E-02  0.2230928836185E-02
 0.4320711144487E-02  0.2352505704031E-02
 0.4902587131812E-02  0.2465346130377E-02
 0.5518235438041E-02  0.2568768986550E-02
 0.6166737451795E-02  0.2662048756480E-02
 0.6847126397130E-02  0.2744413589095E-02
 0.7558313890803E-02  0.2815027458328E-02
 0.8299096468716E-02  0.2872985249654E-02
 0.9068127264279E-02  0.2917301744809E-02
 0.9863890189465E-02  0.2946895402667E-02
 0.1068467451295E-01  0.2960776144211E-02
 0.1152848788480E-01  0.2959036949882E-02
 0.1239290925499E-01  0.2942359591434E-02
 0.1327498735024E-01  0.2911383485737E-02
 0.1417121333812E-01  0.2866435072378E-02
 0.1507753753786E-01  0.2807522134444E-02
 0.1598936806166E-01  0.2734493284825E-02
 0.1690154394801E-01  0.2647234304121E-02
 0.1780824243677E-01  0.2545863330760E-02
 0.1870289983622E-01  0.2430879397188E-02
 0.1957835191155E-01  0.2302142458558E-02