<VTKFile type="UnstructuredGrid" version="1,0" byte_order="LittleEndian">
<UnstructuredGrid>
<Piece NumberOfPoints="5802" NumberOfCells="5680">
<Points>
<DataArray type="Float64" NumberOfComponents="3" format="ascii">
-0.1100000000000E+01 -0.4731587125634E+01  0.0000000000000E+00
 0.0000000000000E+00 -0.4731587125634E+01  0.0000000000000E+00
 0.1100000000000E+01 -0.4731587125634E+01  0.0000000000000E+00
-0.1191315091097E+01 -0.1825930012610E+01  0.0000000000000E+00
-0.5956575398395E+00 -0.1755172846926E+01  0.0000000000000E+00
 0.5956575512579E+00 -0.1755172847830E+01  0.0000000000000E+00
 0.1191315091097E+01 -0.1825930012610E+01  0.0000000000000E+00
-0.1487255332335E+01  0.3711246317436E+00  0.0000000000000E+00
 0.1487255329206E+01  0.3711246337271E+00  0.0000000000000E+00
-0.6187500000000E+00 -0.4973806884503E+00  0.0000000000000E+00
 0.6187500000000E+00 -0.4973806884503E+00  0.0000000000000E+00
-0.1072500000000E+01 -0.4731587125634E+01  0.0000000000000E+00
-0.1045000000000E+01 -0.4731587125634E+01  0.0000000000000E+00
-0.1017500000000E+01 -0.4731587125634E+01  0.0000000000000E+00
-0.9900000000000E+00 -0.4731587125634E+01  0.0000000000000E+00
-0.9625000000000E+00 -0.4731587125634E+01  0.0000000000000E+00
-0.9350000000000E+00 -0.4731587125634E+01  0.0000000000000E+00
-0.9075000000000E+00 -0.4731587125634E+01  0.0000000000000E+00
-0.8800000000000E+00 -0.4731587125634E+01  0.0000000000000E+00
-0.8525000000000E+00 -0.4731587125634E+01  0.0000000000000E+00
-0.8250000000000E+00 -0.4731587125634E+01  0.0000000000000E+00
-0.7975000000000E+00 -0.4731587125634E+01  0.0000000000000E+00
-0.7700000000000E+00 -0.4731587125634E+01  0.0000000000000E+00
-0.7425000000000E+00 -0.4731587125634E+01  0.0000000000000E+00
-0.7150000000000E+00 -0.4731587125634E+01  0.0000000000000E+00
-0.6875000000000E+00 -0.4731587125634E+01  0.0000000000000E+00
-0.6600000000000E+00 -0.4731587125634E+01  0.0000000000000E+00
-0.6325000000000E+00 -0.4731587125634E+01  0.0000000000000E+00
-0.6050000000000E+00 -0.4731587125634E+01  0.0000000000000E+00
-0.5775000000000E+00 -0.4731587125634E+01  0.0000000000000E+00
-0.5500000000000E+00 -0.4731587125634E+01  0.0000000000000E+00
-0.5225000000000E+00 -0.4731587125634E+01  0.0000000000000E+00
-0.4950000000000E+00 -0.4731587125634E+01  0.0000000000000E+00
-0.4675000000000E+00 -0.4731587125634E+01  0.0000000000000E+00
-0.4400000000000E+00 -0.4731587125634E+01  0.0000000000000E+00
-0.4125000000000E+00 -0.4731587125634E+01  0.0000000000000E+00
-0.3850000000000E+00 -0.4731587125634E+01  0.0000000000000E+00
-0.3575000000000E+00 -0.4731587125634E+01  0.0000000000000E+00
-0.3300000000000E+00 -0.4731587125634E+01  0.0000000000000E+00
-0.3025000000000E+00 -0.4731587125634E+01  0.0000000000000E+00
-0.2750000000000E+00 -0.4731587125634E+01  0.0000000000000E+00
-0.2475000000000E+00 -0.4731587125634E+01  0.0000000000000E+00
-0.2200000000000E+00 -0.4731587125634E+01  0.0000000000000E+00
-0.1925000000000E+00 -0.4731587125634E+01  0.0000000000000E+00
-0.1650000000000E+00 -0.4731587125634E+01  0.0000000000000E+00
-0.1375000000000E+00 -0.4731587125634E+01  0.0000000000000E+00
-0.1100000000000E+00 -0.4731587125634E+01  0.0000000000000E+00
-0.8250000000000E-01 -0.4731587125634E+01  0.0000000000000E+00
-0.5500000000000E-01 -0.4731587125634E+01  0.0000000000000E+00
-0.2750000000000E-01 -0.4731587125634E+01  0.0000000000000E+00
 0.2750000000000E-01 -0.4731587125634E+01  0.0000000000000E+00
 0.5500000000000E-01 -0.4731587125634E+01  0.0000000000000E+00
 0.8250000000000E-01 -0.4731587125634E+01  0.0000000000000E+00
 0.1100000000000E+00 -0.4731587125634E+01  0.0000000000000E+00
 0.1375000000000E+00 -0.4731587125634E+01  0.0000000000000E+00
 0.1650000000000E+00 -0.4731587125634E+01  0.0000000000000E+00
 0.1925000000000E+00 -0.4731587125634E+01  0.0000000000000E+00
 0.2200000000000E+00 -0.4731587125634E+01  0.0000000000000E+00
 0.2475000000000E+00 -0.4731587125634E+01  0.0000000000000E+00
 0.2750000000000E+00 -0.4731587125634E+01  0.0000000000000E+00
 0.3025000000000E+00 -0.4731587125634E+01  0.0000000000000E+00
 0.3300000000000E+00 -0.4731587125634E+01  0.0000000000000E+00
 0.3575000000000E+00 -0.4731587125634E+01  0.0000000000000E+00
 0.3850000000000E+00 -0.4731587125634E+01  0.0000000000000E+00
 0.4125000000000E+00 -0.4731587125634E+01  0.0000000000000E+00
 0.4400000000000E+00 -0.4731587125634E+01  0.0000000000000E+00
 0.4675000000000E+00 -0.4731587125634E+01  0.0000000000000E+00
 0.4950000000000E+00 -0.4731587125634E+01  0.0000000000000E+00
 0.5225000000000E+00 -0.4731587125634E+01  0.0000000000000E+00
 0.5500000000000E+00 -0.4731587125634E+01  0.0000000000000E+00
 0.5775000000000E+00 -0.4731587125634E+01  0.0000000000000E+00
 0.6050000000000E+00 -0.4731587125634E+01  0.0000000000000E+00
 0.6325000000000E+00 -0.4731587125634E+01  0.0000000000000E+00
 0.6600000000000E+00 -0.4731587125634E+01  0.0000000000000E+00
 0.6875000000000E+00 -0.4731587125634E+01  0.0000000000000E+00
 0.7150000000000E+00 -0.4731587125634E+01  0.0000000000000E+00
 0.7425000000000E+00 -0.4731587125634E+01  0.0000000000000E+00
 0.7700000000000E+00 -0.4731587125634E+01  0.0000000000000E+00
 0.7975000000000E+00 -0.4731587125634E+01  0.0000000000000E+00
 0.8250000000000E+00 -0.4731587125634E+01  0.0000000000000E+00
 0.8525000000000E+00 -0.4731587125634E+01  0.0000000000000E+00
 0.8800000000000E+00 -0.4731587125634E+01  0.0000000000000E+00
 0.9075000000000E+00 -0.4731587125634E+01  0.0000000000000E+00
 0.9350000000000E+00 -0.4731587125634E+01  0.0000000000000E+00
 0.9625000000000E+00 -0.4731587125634E+01  0.0000000000000E+00
 0.9900000000000E+00 -0.4731587125634E+01  0.0000000000000E+00
 0.1017500000000E+01 -0.4731587125634E+01  0.0000000000000E+00
 0.1045000000000E+01 -0.4731587125634E+01  0.0000000000000E+00
 0.1072500000000E+01 -0.4731587125634E+01  0.0000000000000E+00
-0.1161675590434E+01 -0.1821293974842E+01  0.0000000000000E+00
-0.1132018469080E+01 -0.1816772081031E+01  0.0000000000000E+00
-0.1102344135527E+01 -0.1812364599475E+01  0.0000000000000E+00
-0.1072653001422E+01 -0.1808071792594E+01  0.0000000000000E+00
-0.1042945459471E+01 -0.1803893913795E+01  0.0000000000000E+00
-0.1013221952450E+01 -0.1799831217138E+01  0.0000000000000E+00
-0.9834829017084E+00 -0.1795883946982E+01  0.0000000000000E+00
-0.9537287316532E+00 -0.1792052341512E+01  0.0000000000000E+00
-0.9239598612408E+00 -0.1788336631619E+01  0.0000000000000E+00
-0.8941767210493E+00 -0.1784737043031E+01  0.0000000000000E+00
-0.8643797539566E+00 -0.1781253796152E+01  0.0000000000000E+00
-0.8345693957871E+00 -0.1777887103664E+01  0.0000000000000E+00
-0.8047460850418E+00 -0.1774637171701E+01  0.0000000000000E+00
-0.7749102599775E+00 -0.1771504199483E+01  0.0000000000000E+00
-0.7450623578572E+00 -0.1768488379244E+01  0.0000000000000E+00
-0.7152028352234E+00 -0.1765589898169E+01  0.0000000000000E+00
-0.6853321404180E+00 -0.1762808935500E+01  0.0000000000000E+00
-0.6554507240472E+00 -0.1760145663610E+01  0.0000000000000E+00
-0.6255590388957E+00 -0.1757600247935E+01  0.0000000000000E+00
-0.5659320403842E+00 -0.1752877555980E+01  0.0000000000000E+00
-0.5361977827764E+00 -0.1750699115345E+01  0.0000000000000E+00
-0.5064551822954E+00 -0.1748637656849E+01  0.0000000000000E+00
-0.4767046834532E+00 -0.1746693307634E+01  0.0000000000000E+00
-0.4469467825907E+00 -0.1744866190914E+01  0.0000000000000E+00
-0.4171818756954E+00 -0.1743156416506E+01  0.0000000000000E+00
-0.3874104734057E+00 -0.1741564093885E+01  0.0000000000000E+00
-0.3576330176963E+00 -0.1740089321191E+01  0.0000000000000E+00
-0.3278499563594E+00 -0.1738732189839E+01  0.0000000000000E+00
-0.2980617833702E+00 -0.1737492785992E+01  0.0000000000000E+00
-0.2682689204519E+00 -0.1736371185422E+01  0.0000000000000E+00
-0.2384718656336E+00 -0.1735367459648E+01  0.0000000000000E+00
-0.2086710716336E+00 -0.1734481671049E+01  0.0000000000000E+00
-0.1788669979735E+00 -0.1733713874997E+01  0.0000000000000E+00
-0.1490601279746E+00 -0.1733064120054E+01  0.0000000000000E+00
-0.1192509059245E+00 -0.1732532446511E+01  0.0000000000000E+00
-0.8943981808141E-01 -0.1732118888112E+01  0.0000000000000E+00
-0.5962732433722E-01 -0.1731823470688E+01  0.0000000000000E+00
-0.2981389296327E-01 -0.1731646212812E+01  0.0000000000000E+00
 0.5727055635285E-08 -0.1731587125634E+01  0.0000000000000E+00
 0.2981390441730E-01 -0.1731646212857E+01  0.0000000000000E+00
 0.5962733579097E-01 -0.1731823470779E+01  0.0000000000000E+00
 0.8943982953471E-01 -0.1732118888248E+01  0.0000000000000E+00
 0.1192509173772E+00 -0.1732532446692E+01  0.0000000000000E+00
 0.1490601394265E+00 -0.1733064120281E+01  0.0000000000000E+00
 0.1788670094244E+00 -0.1733713875269E+01  0.0000000000000E+00
 0.2086710830833E+00 -0.1734481671367E+01  0.0000000000000E+00
 0.2384718770819E+00 -0.1735367460011E+01  0.0000000000000E+00
 0.2682689318987E+00 -0.1736371185830E+01  0.0000000000000E+00
 0.2980617948153E+00 -0.1737492786445E+01  0.0000000000000E+00
 0.3278499678026E+00 -0.1738732190338E+01  0.0000000000000E+00
 0.3576330291375E+00 -0.1740089321735E+01  0.0000000000000E+00
 0.3874104848446E+00 -0.1741564094474E+01  0.0000000000000E+00
 0.4171818871319E+00 -0.1743156417141E+01  0.0000000000000E+00
 0.4469467940246E+00 -0.1744866191594E+01  0.0000000000000E+00
 0.4767046948843E+00 -0.1746693308359E+01  0.0000000000000E+00
 0.5064551937236E+00 -0.1748637657619E+01  0.0000000000000E+00
 0.5361977942015E+00 -0.1750699116160E+01  0.0000000000000E+00
 0.5659320518060E+00 -0.1752877556840E+01  0.0000000000000E+00
 0.6255590497397E+00 -0.1757600248837E+01  0.0000000000000E+00
 0.6554507343169E+00 -0.1760145664505E+01  0.0000000000000E+00
 0.6853321501138E+00 -0.1762808936384E+01  0.0000000000000E+00
 0.7152028443456E+00 -0.1765589899036E+01  0.0000000000000E+00
 0.7450623664059E+00 -0.1768488380091E+01  0.0000000000000E+00
 0.7749102679531E+00 -0.1771504200305E+01  0.0000000000000E+00
 0.8047460924447E+00 -0.1774637172493E+01  0.0000000000000E+00
 0.8345694026177E+00 -0.1777887104422E+01  0.0000000000000E+00
[...]
<PointData Vectors="'U'">
<DataArray type="Float64" Name="U" NumberOfComponents="2" ComponentName0="U1" ComponentName1="U2" format="ascii">
-0.6341878333230E-37 -0.1597463583856E-36
 0.1463041914418E-38 -0.4382037657166E-37
-0.2484499948564E-37  0.6291965341809E-37
-0.4464359730408E-01 -0.4411206208058E-01
-0.3784554051680E-01 -0.1996716948880E-01
-0.3280973087623E-01  0.1742726175797E-02
-0.3210748645239E-01  0.1269611414711E-01
-0.9225701740112E+00 -0.6796800622121E+00
-0.5326183037462E+00  0.1937392416814E+00
-0.5109734277831E+00 -0.3863552515347E+00
-0.2442428397877E+00 -0.4534131350476E-01
-0.2611853875669E-37 -0.2087053254652E-36
-0.2749191186050E-37 -0.1859224283338E-36
-0.2544427044345E-37 -0.1734875730544E-36
-0.2309895151272E-37 -0.1648991355281E-36
-0.2094187705760E-37 -0.1581921623406E-36
-0.1902548313807E-37 -0.1525641579733E-36
-0.1732464188972E-37 -0.1476190987257E-36
-0.1580515124252E-37 -0.1431362373340E-36
-0.1443711590006E-37 -0.1389818156548E-36
-0.1319652983604E-37 -0.1350696985725E-36
-0.1206443119981E-37 -0.1313417670080E-36
-0.1102578244927E-37 -0.1277573180561E-36
-0.1006853071137E-37 -0.1242869615314E-36
-0.9182895070001E-38 -0.1209089247453E-36
-0.8360840199919E-38 -0.1176067214107E-36
-0.7595688237358E-38 -0.1143676294475E-36
-0.6881830488961E-38 -0.1111816674145E-36
-0.6214510871740E-38 -0.1080408885789E-36
-0.5589662033937E-38 -0.1049388842085E-36
-0.5003932276515E-38 -0.1018705109671E-36
-0.4453979007297E-38 -0.9883116850547E-37
-0.3937234550523E-38 -0.9581745166223E-37
-0.3451389114364E-38 -0.9282631183098E-37
-0.2994370882131E-38 -0.8985516280216E-37
-0.2564336274057E-38 -0.8690179022389E-37
-0.2159639020774E-38 -0.8396427998004E-37
-0.1778803206012E-38 -0.8104096251136E-37
-0.1420501137469E-38 -0.7813036905637E-37
-0.1083534957955E-38 -0.7523119613095E-37
-0.7668212199941E-39 -0.7234227660978E-37
-0.4693782933359E-39 -0.6946255623848E-37
-0.1903156529437E-39 -0.6659107385575E-37
 0.7117490737372E-40 -0.6372694525077E-37
 0.3158265698408E-39 -0.6086934943332E-37
 0.5443036085106E-39 -0.5801751706682E-37
 0.7572062826857E-39 -0.5517072076522E-37
 0.9550749013968E-39 -0.5232826661162E-37
 0.1138392998001E-38 -0.4948948705423E-37
 0.1307589775214E-38 -0.4665373463421E-37
 0.1605074761951E-38 -0.4098879000835E-37
 0.1733962955222E-38 -0.3815835778551E-37
 0.1849930521907E-38 -0.3532846466160E-37
 0.1953150457386E-38 -0.3249849388889E-37
 0.2043743755974E-38 -0.2966782407062E-37
 0.2121777982709E-38 -0.2683582613976E-37
 0.2187265199343E-38 -0.2400186060649E-37
 0.2240159370287E-38 -0.2116527463792E-37
 0.2280353110549E-38 -0.1832539928888E-37
 0.2307673647445E-38 -0.1548154650143E-37
 0.2321878103600E-38 -0.1263300579875E-37
 0.2322647673983E-38 -0.9779040864264E-38
 0.2309580816884E-38 -0.6918885222782E-38
 0.2282185139407E-38 -0.4051737562258E-38
 0.2239867612847E-38 -0.1176755864189E-38
 0.2181923130891E-38  0.1706949868089E-38
 0.2107520589865E-38  0.4600326365032E-38
 0.2015686438859E-38  0.7504389098619E-38
 0.1905285920593E-38  0.1042023861678E-37
 0.1775089318094E-38  0.1334911794020E-37
 0.1623460636925E-38  0.1629212312281E-37
 0.1448498876319E-38  0.1925096715605E-37
 0.1248201824045E-38  0.2222727499716E-37
 0.1020110431868E-38  0.2522298632345E-37
 0.7613269400244E-39  0.2824039251396E-37
 0.4684185974612E-39  0.3128225596755E-37
 0.1372900213913E-39  0.3435198625003E-37
-0.2369864940626E-39  0.3745390262479E-37
-0.6603993398199E-39  0.4059363503806E-37
-0.1140308472595E-38  0.4377875479159E-37
-0.1685871711693E-38  0.4701980193385E-37
-0.2308625820610E-38  0.5033203056456E-37
-0.3023246254746E-38  0.5373852954141E-37
-0.3848390854313E-38  0.5727617402781E-37
-0.4806973662183E-38  0.6100796576779E-37
-0.5922710220790E-38  0.6505166225821E-37
-0.7197676299256E-38  0.6965740682079E-37
-0.8487146323173E-38  0.7547030913955E-37
-0.8701619051513E-38  0.8473697781136E-37
-0.4365928462833E-01 -0.4032899217121E-01
-0.4296896664275E-01 -0.3786818860367E-01
-0.4240758764954E-01 -0.3599029562104E-01
-0.4193910775493E-01 -0.3442610589529E-01
-0.4153593494010E-01 -0.3305793008939E-01
-0.4117913068664E-01 -0.3182438119569E-01
-0.4085586773642E-01 -0.3068997680906E-01
-0.4055754927203E-01 -0.2963247838630E-01
-0.4027837158563E-01 -0.2863700060472E-01
-0.4001435164070E-01 -0.2769302255840E-01
-0.3976269588984E-01 -0.2679276761354E-01
-0.3952139820688E-01 -0.2593027306633E-01
-0.3928898468458E-01 -0.2510082909743E-01
-0.3906435059326E-01 -0.2430062396943E-01
-0.3884665574629E-01 -0.2352651068254E-01
-0.3863525833758E-01 -0.2277584847106E-01
-0.3842967561598E-01 -0.2204638929524E-01
-0.3822957318225E-01 -0.2133619622854E-01
-0.3803477297219E-01 -0.2064355864145E-01
-0.3766091132406E-01 -0.1930994851634E-01
-0.3747955078831E-01 -0.1866505119639E-01
-0.3730146729218E-01 -0.1803201865104E-01
-0.3712667608582E-01 -0.1741005893462E-01
-0.3695516232787E-01 -0.1679837751411E-01
-0.3678689427326E-01 -0.1619621676730E-01
-0.3662183279846E-01 -0.1560287155897E-01
-0.3645993635354E-01 -0.1501768591908E-01
-0.3630116476397E-01 -0.1444005179390E-01
-0.3614548117101E-01 -0.1386940602486E-01
-0.3599285212052E-01 -0.1330522418200E-01
-0.3584324846028E-01 -0.1274701974376E-01
-0.3569664449725E-01 -0.1219433843232E-01
-0.3555301788036E-01 -0.1164675619689E-01
-0.3541234920155E-01 -0.1110387681437E-01
-0.3527462119089E-01 -0.1056532831665E-01
-0.3513981859188E-01 -0.1003076228680E-01
-0.3500792735299E-01 -0.9499850652547E-02
-0.3487893432906E-01 -0.8972284535180E-02
-0.3475282682348E-01 -0.8447772516682E-02
-0.3462959217574E-01 -0.7926039077567E-02
-0.3450921742103E-01 -0.7406823305023E-02
-0.3439168898502E-01 -0.6889877714672E-02
-0.3427699238254E-01 -0.6374967037647E-02
-0.3416511194964E-01 -0.5861867084668E-02
-0.3405603076143E-01 -0.5350364408501E-02
-0.3394973019948E-01 -0.4840254283616E-02
-0.3384619010083E-01 -0.4331341340505E-02
-0.3374538841071E-01 -0.3823437826354E-02
-0.3364730115839E-01 -0.3316363338210E-02
-0.3355190256390E-01 -0.2809945270467E-02
-0.3345916461935E-01 -0.2304016459973E-02
-0.3336905759966E-01 -0.1798417635156E-02
-0.3328154983425E-01 -0.1292995637836E-02
-0.3319660824712E-01 -0.7876048283189E-03
-0.3311419969151E-01 -0.2821099604219E-03
-0.3303429297943E-01  0.2236140863596E-03
-0.3295686924168E-01  0.7296704241996E-03
-0.3288193308356E-01  0.1236136491614E-02
-0.3273878691472E-01  0.2253265621982E-02
-0.3267040146997E-01  0.2765244631123E-02
-0.3260436798563E-01  0.3278466971279E-02
-0.3254065579852E-01  0.3793010596513E-02
-0.3247925851336E-01  0.4308974068932E-02
-0.3242019351404E-01  0.4826469747066E-02
-0.3236350274408E-01  0.5345619005498E-02
-0.3230926181583E-01  0.5866554934137E-02
-0.3225759474390E-01  0.6389428847952E-02
-0.3220869621346E-01  0.6914423986841E-02
-0.3216286497715E-01  0.7441780473230E-02
-0.3212055432003E-01  0.7971840112018E-02
-0.3208244854165E-01  0.8505129252280E-02
-0.3204957820856E-01  0.9042514274820E-02
-0.3202348879277E-01  0.9585504440866E-02
-0.3200646947866E-01  0.1013686850248E-01
-0.3200179990564E-01  0.1070196514347E-01
-0.3201383559026E-01  0.1129187381859E-01
-0.3204696966930E-01  0.1193247595115E-01
-0.1904456096831E+00 -0.1420991343057E+00
-0.2642939383016E+00 -0.2266339333469E+00
-0.3233428013206E+00 -0.2968216654456E+00
-0.3752258483841E+00 -0.3614313055225E+00
-0.4239909557185E+00 -0.4222039386823E+00
-0.4718900451665E+00 -0.4782032851766E+00
-0.5196069678169E+00 -0.5256936527011E+00
-0.5664429295741E+00 -0.5648390880634E+00
-0.6118850630455E+00 -0.5975366006910E+00
-0.6557777583305E+00 -0.6249597128852E+00
-0.6979687078401E+00 -0.6476334038244E+00
-0.7381773840202E+00 -0.6657709947103E+00
-0.7760426951174E+00 -0.6796649671392E+00
-0.8111142006125E+00 -0.6894954621974E+00
-0.8428264583091E+00 -0.6953727933498E+00
-0.8706060958125E+00 -0.6976562951792E+00
-0.8940613548506E+00 -0.6972609848009E+00
-0.9115910160519E+00 -0.6926367160222E+00
-0.9212128009794E+00 -0.6848439072600E+00
-0.9203781793809E+00 -0.6806500342290E+00
-0.9160840865551E+00 -0.6863911039627E+00
-0.9110990893060E+00 -0.6947446032446E+00
-0.9063876686121E+00 -0.7030421770358E+00
-0.9015753857700E+00 -0.7095547793986E+00
-0.8957239763407E+00 -0.7134097864563E+00
-0.8879430515099E+00 -0.7141618992041E+00
-0.8774888297784E+00 -0.7116724946042E+00
-0.8638897828196E+00 -0.7060287774211E+00
-0.8470467940055E+00 -0.6973995686502E+00
-0.8274299552724E+00 -0.6859338109666E+00
-0.8057949291087E+00 -0.6714978871391E+00
-0.7828403772899E+00 -0.6538303340537E+00
-0.7591492381245E+00 -0.6327481048385E+00
-0.7352126645886E+00 -0.6081598794199E+00
-0.7114585065290E+00 -0.5800472990227E+00
-0.6882716109785E+00 -0.5484547677770E+00
-0.6660076823439E+00 -0.5134894557227E+00
-0.6450054287566E+00 -0.4753291168931E+00
-0.6256020415873E+00 -0.4342381317377E+00
-0.6081114651020E+00 -0.3905847866631E+00
-0.5926953202643E+00 -0.3448454077159E+00
-0.5794001334674E+00 -0.2976984243615E+00
-0.5681929639836E+00 -0.2501202518446E+00
-0.5590117485355E+00 -0.2035353542934E+00
-0.5519217430212E+00 -0.1601705621825E+00
-0.5471776276555E+00 -0.1226217582229E+00
-0.5445588370802E+00 -0.9064201328241E-01
-0.5436596729827E+00 -0.6213262280283E-01
-0.5444422589476E+00 -0.3598354946357E-01
-0.5465626074819E+00 -0.1144464659505E-01
-0.5493816230694E+00  0.1212506538232E-01
-0.5523175087330E+00  0.3520080584608E-01
-0.5548112598393E+00  0.5811948966868E-01
-0.5563423134293E+00  0.8107709280378E-01
-0.5563451094051E+00  0.1041391533553E+00
-0.5541253023462E+00  0.1272158759541E+00
-0.5495163377162E+00  0.1500653415193E+00
-0.5425231394872E+00  0.1724152441202E+00
-0.5079934040398E+00  0.2204350174001E+00
-0.4752690765792E+00  0.2373171204284E+00
-0.4383902401094E+00  0.2434239772838E+00
-0.4006850732560E+00  0.2428023416514E+00
-0.3632663045074E+00  0.2399476629014E+00
-0.3264369765480E+00  0.2344105150263E+00
-0.2905460850559E+00  0.2264046483001E+00
-0.2559035115594E+00  0.2162531462685E+00
-0.2227958514658E+00  0.2041398822443E+00
-0.1915043198358E+00  0.1901812083888E+00
-0.1622828580809E+00  0.1746003473863E+00
-0.1353828723022E+00  0.1575136178656E+00
-0.1111132563337E+00  0.1388815136023E+00
-0.8995454406628E-01  0.1185791337633E+00
-0.7243779349209E-01  0.9721864465200E-01
-0.5880228849376E-01  0.7645802260064E-01
-0.4930588600690E-01  0.5696045457981E-01
-0.4390175553759E-01  0.3921935906017E-01
-0.4116911802490E-01  0.2381335100671E-01
-0.6314052661957E-03 -0.1177924132066E-02
-0.1041507442553E-02 -0.2064820160337E-02
-0.1407082936328E-02 -0.2914249712174E-02
-0.1757267182805E-02 -0.3741086984487E-02
-0.2110833504229E-02 -0.4556007394714E-02
-0.2476908183266E-02 -0.5363727047106E-02
-0.2861743534317E-02 -0.6166672984078E-02
-0.3269413001695E-02 -0.6966213838644E-02
-0.3702790933197E-02 -0.7763135865747E-02
-0.4163916585134E-02 -0.8557918697676E-02
-0.4654260454351E-02 -0.9350877176396E-02
-0.5174881875326E-02 -0.1014224742899E-01
-0.5726540182106E-02 -0.1093224351650E-01
-0.6309770901903E-02 -0.1172109430424E-01
-0.6924941992083E-02 -0.1250907162671E-01
-0.7572298461937E-02 -0.1329651635001E-01
-0.8252004923786E-02 -0.1408387056643E-01
-0.8964142924852E-02 -0.1487166751980E-01
-0.9708796781360E-02 -0.1566063056276E-01
-0.1048601759845E-01 -0.1645164948175E-01
-0.1129587740094E-01 -0.1724587938294E-01
-0.1213848439539E-01 -0.1804484554889E-01
-0.1301401922585E-01 -0.1885073529524E-01
-0.1392312294108E-01 -0.1966722555710E-01
-0.1486752551535E-01 -0.2049978300568E-01
-0.1584974384151E-01 -0.2135357087402E-01
-0.1687252299056E-01 -0.2223269178704E-01
-0.1793863312067E-01 -0.2314051694109E-01
-0.1905100942064E-01 -0.2408037782282E-01
-0.2021309708448E-01 -0.2505628690752E-01
-0.2142933218627E-01 -0.2607352800754E-01
-0.2270576434727E-01 -0.2713909451118E-01
-0.2405068778721E-01 -0.2826151922343E-01
-0.2547497988467E-01 -0.2944989684586E-01
-0.2699361379638E-01 -0.3071656744278E-01
-0.2862851717964E-01 -0.3208227901987E-01
-0.3041717966177E-01 -0.3358115590419E-01
-0.3241337365650E-01 -0.3527075652511E-01
-0.3478111289512E-01 -0.3725880525644E-01
-0.3755798967680E-01 -0.3992233960306E-01
-0.3043347480946E-01  0.1212629609493E-01
-0.2922116252356E-01  0.1172371077352E-01
-0.2803372811072E-01  0.1140936031270E-01
-0.2686804932608E-01  0.1113487715511E-01
-0.2570959491019E-01  0.1088465355032E-01
-0.2455600291601E-01  0.1064946246665E-01
-0.2340688260070E-01  0.1042346405519E-01
-0.2226367420193E-01  0.1020311173117E-01
-0.2112866473863E-01  0.9986608188667E-02
-0.2000468299944E-01  0.9771877585818E-02
-0.1889475215949E-01  0.9556507562580E-02
-0.1780189499100E-01  0.9338857465324E-02
-0.1672903988065E-01  0.9117890190501E-02
-0.1567892089433E-01  0.8892909291027E-02
-0.1465396496400E-01  0.8663249829362E-02
-0.1365619930935E-01  0.8427956795347E-02
-0.1268720400484E-01  0.8185593602676E-02
-0.1174819790219E-01  0.7934349156817E-02
-0.1084028124246E-01  0.7672744347700E-02
-0.9964636250858E-02  0.7400665410931E-02
-0.9122417843538E-02  0.7118477688522E-02
-0.8314663066758E-02  0.6826641452602E-02
-0.7542303065400E-02  0.6525642580503E-02
-0.6806182447719E-02  0.6215973916961E-02
-0.6107038621908E-02  0.5898113066812E-02
-0.5445572653814E-02  0.5572545897783E-02
-0.4822393269343E-02  0.5239741871053E-02
-0.4238052157718E-02  0.4900172397646E-02
-0.3693033625985E-02  0.4554313799159E-02
-0.3187744982243E-02  0.4202654056556E-02
-0.2722500331431E-02  0.3845700958517E-02
-0.2297492972870E-02  0.3483989943417E-02
-0.1912748580786E-02  0.3118088557610E-02
-0.1568055048316E-02  0.2748596567129E-02
-0.1262839838470E-02  0.2376135837026E-02
-0.9959927400299E-03  0.2001308252065E-02
-0.7654141898505E-03  0.1624613196798E-02
-0.5676091683151E-03  0.1246158765166E-02
-0.3946431406898E-03  0.8645524016618E-03
-0.2333286244205E-03  0.4789760481030E-03
-0.5037575148862E+00 -0.3822060581933E+00
-0.4963566078516E+00 -0.3778253724873E+00
-0.4887842483416E+00 -0.3731886393985E+00
-0.4810566157490E+00 -0.3682737928874E+00
-0.4731915618863E+00 -0.3630614853647E+00
-0.4652081191113E+00 -0.3575353523469E+00
-0.4571262475202E+00 -0.3516820206516E+00
-0.4489664789527E+00 -0.3454910208391E+00
-0.4407497456620E+00 -0.3389548591320E+00
-0.4324971509172E+00 -0.3320689998072E+00
-0.4242298407976E+00 -0.3248318825026E+00
-0.4159689209576E+00 -0.3172448132083E+00
-0.4077354413273E+00 -0.3093120976176E+00
-0.3995503436596E+00 -0.3010412453568E+00
-0.3914343406493E+00 -0.2924430555546E+00
-0.3834077364999E+00 -0.2835316118498E+00
-0.3754902258461E+00 -0.2743242275126E+00
-0.3677006673599E+00 -0.2648413318356E+00
-0.3600568430548E+00 -0.2551063000795E+00
-0.3525752112822E+00 -0.2451452239637E+00
-0.3452706624887E+00 -0.2349866206162E+00
-0.3381562805891E+00 -0.2246611193612E+00
-0.3312431246075E+00 -0.2142011308352E+00
-0.3245400217991E+00 -0.2036404040237E+00
-0.3180533998851E+00 -0.1930135226099E+00
-0.3117871739887E+00 -0.1823553561470E+00
-0.3057426993036E+00 -0.1717004640566E+00
-0.2999188058035E+00 -0.1610824471769E+00
-0.2943119164124E+00 -0.1505332621387E+00
-0.2889162493928E+00 -0.1400826114415E+00
-0.2837240427633E+00 -0.1297575429243E+00
-0.2787257985547E+00 -0.1195821717723E+00
-0.2739106072044E+00 -0.1095772585763E+00
-0.2692665598319E+00 -0.9976000188095E-01
-0.2647811243296E+00 -0.9014388316045E-01
-0.2604415023649E+00 -0.8073888220416E-01
-0.2562347200798E+00 -0.7155184552957E-01
-0.2521471124604E+00 -0.6258698102291E-01
-0.2481625252515E+00 -0.5384691263211E-01
-0.4876334220254E+00 -0.3634829330197E+00
-0.4641224807751E+00 -0.3407056582434E+00
-0.4404139777111E+00 -0.3180360636884E+00
-0.4164867473392E+00 -0.2954981063827E+00
-0.3923331234165E+00 -0.2731195327839E+00
-0.3679533170871E+00 -0.2509325574709E+00
-0.3433525411279E+00 -0.2289804928724E+00
-0.3185493703923E+00 -0.2073244150306E+00
-0.2935826529757E+00 -0.1860488553459E+00
-0.2685157189667E+00 -0.1652649461016E+00
-0.2434326690866E+00 -0.1451070146514E+00
-0.2184273528224E+00 -0.1257247670184E+00
-0.1935961718773E+00 -0.1072782860212E+00
-0.1690443409281E+00 -0.8993928098219E-01
-0.1449034434772E+00 -0.7389325045728E-01
-0.1213410104096E+00 -0.5933655946367E-01
-0.9855668102288E-01 -0.4647306844190E-01
-0.7680489367383E-01 -0.3550973785437E-01
-0.5642445796155E-01 -0.2663598343890E-01
-0.2243399439351E+00 -0.4206656642760E-01
-0.2049703892287E+00 -0.3887302912407E-01
-0.1861785251315E+00 -0.3570978209930E-01
-0.1680082368565E+00 -0.3259110346508E-01
-0.1505074154095E+00 -0.2954381381366E-01
-0.1337267150499E+00 -0.2659310760648E-01
-0.1177305993835E+00 -0.2375880150745E-01
-0.1025943919841E+00 -0.2105294433154E-01
-0.8840299115900E-01 -0.1847858971265E-01
-0.7525157719974E-01 -0.1603129379283E-01
-0.6324754154158E-01 -0.1370451408071E-01
-0.5251293739258E-01 -0.1149590160069E-01
-0.4318690587758E-01 -0.9409528124520E-02
-0.3542663552976E-01 -0.7452832351068E-02
-0.2940787795721E-01 -0.5632592337050E-02
-0.2532286413091E-01 -0.3951384096626E-02
-0.2337606070885E-01 -0.2400745275132E-02
-0.2379350216902E-01 -0.9579790987970E-03
-0.2683729361657E-01  0.4112409511423E-03
-0.5415933921329E+00 -0.4121588675585E+00
-0.5721639478633E+00 -0.4377219326712E+00
-0.6025284945135E+00 -0.4628324196102E+00
-0.6325262561396E+00 -0.4872860271975E+00
-0.6619946489433E+00 -0.5108864218515E+00
-0.6907694097263E+00 -0.5334461242497E+00
-0.7186841654421E+00 -0.5547883626939E+00
-0.7455700012185E+00 -0.5747491423433E+00
-0.7712549958315E+00 -0.5931794049155E+00
-0.7955636625919E+00 -0.6099473150635E+00
-0.8183162866593E+00 -0.6249408708802E+00
-0.8393282509787E+00 -0.6380711886518E+00
-0.8584095949260E+00 -0.6492769944991E+00
-0.8753652805714E+00 -0.6585310911378E+00
-0.8899969939205E+00 -0.6658498898114E+00
-0.9021078795556E+00 -0.6713075958574E+00
-0.9115127594519E+00 -0.6750575837382E+00
-0.9180596171148E+00 -0.6773659071978E+00
-0.9216791573750E+00 -0.6786678629167E+00
-0.2563362134971E+00 -0.3596805983479E-01
-0.2690867464045E+00 -0.2589159374938E-01
-0.2824818115563E+00 -0.1523725679691E-01
-0.2964524577883E+00 -0.4118220721283E-02
-0.3109161192529E+00  0.7364007753958E-02
-0.3257812051066E+00  0.1911664640746E-01
-0.3409499043964E+00  0.3105809306884E-01
-0.3563212656443E+00  0.4312065833434E-01
-0.3717952697537E+00  0.5525315237221E-01
-0.3872776110040E+00  0.6742270122785E-01
-0.4026847257010E+00  0.7961539081406E-01
-0.4179484569284E+00  0.9183538760935E-01
-0.4330196243314E+00  0.1041022975551E+00
-0.4478697217995E+00  0.1164467431673E+00
-0.4624900979158E+00  0.1289044940796E+00
-0.4768883755893E+00  0.1415099148501E+00
-0.4910824730456E+00  0.1542897770650E+00
-0.5050932292089E+00  0.1672584083602E+00
-0.5189364574075E+00  0.1804141077991E+00
-0.5221590405780E-03 -0.9946481406435E-03
-0.9622513614421E-03 -0.1930796506680E-02
-0.1327241166820E-02 -0.2784651195521E-02
-0.1680500538087E-02 -0.3612931552846E-02
-0.2035497736979E-02 -0.4424909063305E-02
-0.2402988244279E-02 -0.5227199750106E-02
-0.2789097025773E-02 -0.6022987514503E-02
-0.3198049539683E-02 -0.6814158398113E-02
-0.3632750425601E-02 -0.7601838543777E-02
-0.4095267993168E-02 -0.8386744763180E-02
-0.4587084756329E-02 -0.9169362585734E-02
-0.5109265555700E-02 -0.9950053950782E-02
-0.5662569887207E-02 -0.1072912714813E-01
-0.6247529924024E-02 -0.1150688216483E-01
-0.6864507504972E-02 -0.1228364440728E-01
-0.7513739204632E-02 -0.1305979439504E-01
-0.8195378980694E-02 -0.1383580240487E-01
-0.8909495284818E-02 -0.1461221992473E-01
-0.9656156416520E-02 -0.1538977901477E-01
-0.1043539327931E-01 -0.1616936869181E-01
-0.1124725118472E-01 -0.1695213145299E-01
-0.1209179842142E-01 -0.1773956573682E-01
-0.1296916781600E-01 -0.1853370155973E-01
-0.1387998569443E-01 -0.1933737211622E-01
-0.1482604003594E-01 -0.2015489519259E-01
-0.1580994852955E-01 -0.2099090416835E-01
-0.1683453830881E-01 -0.2184948120967E-01
-0.1790262113018E-01 -0.2273413258855E-01
-0.1901714128938E-01 -0.2364819497824E-01
-0.2018154509669E-01 -0.2459537732901E-01
-0.2140029363212E-01 -0.2558025775732E-01
-0.2267952213805E-01 -0.2660863427705E-01
-0.2402760182491E-01 -0.2768790211085E-01
-0.2545543900304E-01 -0.2882621838003E-01