<VTKFile type="UnstructuredGrid" version="1,0" byte_order="LittleEndian">
<UnstructuredGrid>
<Piece NumberOfPoints="5802" NumberOfCells="5680">
<Points>
<DataArray type="Float64" NumberOfComponents="3" format="ascii">
-0.1100000000000E+01 -0.4731587125634E+01  0.0000000000000E+00
 0.0000000000000E+00 -0.4731587125634E+01  0.0000000000000E+00
 0.1100000000000E+01 -0.4731587125634E+01  0.0000000000000E+00
-0.1191315091097E+01 -0.1825930012610E+01  0.0000000000000E+00
-0.5956575398395E+00 -0.1755172846926E+01  0.0000000000000E+00
 0.5956575512579E+00 -0.1755172847830E+01  0.0000000000000E+00
 0.1191315091097E+01 -0.1825930012610E+01  0.0000000000000E+00
-0.1487255332335E+01  0.3711246317436E+00  0.0000000000000E+00
 0.1487255329206E+01  0.3711246337271E+00  0.0000000000000E+00
-0.6187500000000E+00 -0.4973806884503E+00  0.0000000000000E+00
 0.6187500000000E+00 -0.4973806884503E+00  0.0000000000000E+00
-0.1072500000000E+01 -0.4731587125634E+01  0.0000000000000E+00
-0.1045000000000E+01 -0.4731587125634E+01  0.0000000000000E+00
-0.1017500000000E+01 -0.4731587125634E+01  0.0000000000000E+00
-0.9900000000000E+00 -0.4731587125634E+01  0.0000000000000E+00
-0.9625000000000E+00 -0.4731587125634E+01  0.0000000000000E+00
-0.9350000000000E+00 -0.4731587125634E+01  0.0000000000000E+00
-0.9075000000000E+00 -0.4731587125634E+01  0.0000000000000E+00
-0.8800000000000E+00 -0.4731587125634E+01  0.0000000000000E+00
-0.8525000000000E+00 -0.4731587125634E+01  0.0000000000000E+00
-0.8250000000000E+00 -0.4731587125634E+01  0.0000000000000E+00
-0.7975000000000E+00 -0.4731587125634E+01  0.0000000000000E+00
-0.7700000000000E+00 -0.4731587125634E+01  0.0000000000000E+00
-0.7425000000000E+00 -0.4731587125634E+01  0.0000000000000E+00
-0.7150000000000E+00 -0.4731587125634E+01  0.0000000000000E+00
-0.6875000000000E+00 -0.4731587125634E+01  0.0000000000000E+00
-0.6600000000000E+00 -0.4731587125634E+01  0.0000000000000E+00
-0.6325000000000E+00 -0.4731587125634E+01  0.0000000000000E+00
-0.6050000000000E+00 -0.4731587125634E+01  0.0000000000000E+00
-0.5775000000000E+00 -0.4731587125634E+01  0.0000000000000E+00
-0.5500000000000E+00 -0.4731587125634E+01  0.0000000000000E+00
-0.5225000000000E+00 -0.4731587125634E+01  0.0000000000000E+00
-0.4950000000000E+00 -0.4731587125634E+01  0.0000000000000E+00
-0.4675000000000E+00 -0.4731587125634E+01  0.0000000000000E+00
-0.4400000000000E+00 -0.4731587125634E+01  0.0000000000000E+00
-0.4125000000000E+00 -0.4731587125634E+01  0.0000000000000E+00
-0.3850000000000E+00 -0.4731587125634E+01  0.0000000000000E+00
-0.3575000000000E+00 -0.4731587125634E+01  0.0000000000000E+00
-0.3300000000000E+00 -0.4731587125634E+01  0.0000000000000E+00
-0.3025000000000E+00 -0.4731587125634E+01  0.0000000000000E+00
-0.2750000000000E+00 -0.4731587125634E+01  0.0000000000000E+00
-0.2475000000000E+00 -0.4731587125634E+01  0.0000000000000E+00
-0.2200000000000E+00 -0.4731587125634E+01  0.0000000000000E+00
-0.1925000000000E+00 -0.4731587125634E+01  0.0000000000000E+00
-0.1650000000000E+00 -0.4731587125634E+01  0.0000000000000E+00
-0.1375000000000E+00 -0.4731587125634E+01  0.0000000000000E+00
-0.1100000000000E+00 -0.4731587125634E+01  0.0000000000000E+00
-0.8250000000000E-01 -0.4731587125634E+01  0.0000000000000E+00
-0.5500000000000E-01 -0.4731587125634E+01  0.0000000000000E+00
-0.2750000000000E-01 -0.4731587125634E+01  0.0000000000000E+00
 0.2750000000000E-01 -0.4731587125634E+01  0.0000000000000E+00
 0.5500000000000E-01 -0.4731587125634E+01  0.0000000000000E+00
 0.8250000000000E-01 -0.4731587125634E+01  0.0000000000000E+00
 0.1100000000000E+00 -0.4731587125634E+01  0.0000000000000E+00
 0.1375000000000E+00 -0.4731587125634E+01  0.0000000000000E+00
 0.1650000000000E+00 -0.4731587125634E+01  0.0000000000000E+00
 0.1925000000000E+00 -0.4731587125634E+01  0.0000000000000E+00
 0.2200000000000E+00 -0.4731587125634E+01  0.0000000000000E+00
 0.2475000000000E+00 -0.4731587125634E+01  0.0000000000000E+00
 0.2750000000000E+00 -0.4731587125634E+01  0.0000000000000E+00
 0.3025000000000E+00 -0.4731587125634E+01  0.0000000000000E+00
 0.3300000000000E+00 -0.4731587125634E+01  0.0000000000000E+00
 0.3575000000000E+00 -0.4731587125634E+01  0.0000000000000E+00
 0.3850000000000E+00 -0.4731587125634E+01  0.0000000000000E+00
 0.4125000000000E+00 -0.4731587125634E+01  0.0000000000000E+00
 0.4400000000000E+00 -0.4731587125634E+01  0.0000000000000E+00
 0.4675000000000E+00 -0.4731587125634E+01  0.0000000000000E+00
 0.4950000000000E+00 -0.4731587125634E+01  0.0000000000000E+00
 0.5225000000000E+00 -0.4731587125634E+01  0.0000000000000E+00
 0.5500000000000E+00 -0.4731587125634E+01  0.0000000000000E+00
 0.5775000000000E+00 -0.4731587125634E+01  0.0000000000000E+00
 0.6050000000000E+00 -0.4731587125634E+01  0.0000000000000E+00
 0.6325000000000E+00 -0.4731587125634E+01  0.0000000000000E+00
 0.6600000000000E+00 -0.4731587125634E+01  0.0000000000000E+00
 0.6875000000000E+00 -0.4731587125634E+01  0.0000000000000E+00
 0.7150000000000E+00 -0.4731587125634E+01  0.0000000000000E+00
 0.7425000000000E+00 -0.4731587125634E+01  0.0000000000000E+00
 0.7700000000000E+00 -0.4731587125634E+01  0.0000000000000E+00
 0.7975000000000E+00 -0.4731587125634E+01  0.0000000000000E+00
 0.8250000000000E+00 -0.4731587125634E+01  0.0000000000000E+00
 0.8525000000000E+00 -0.4731587125634E+01  0.0000000000000E+00
 0.8800000000000E+00 -0.4731587125634E+01  0.0000000000000E+00
 0.9075000000000E+00 -0.4731587125634E+01  0.0000000000000E+00
 0.9350000000000E+00 -0.4731587125634E+01  0.0000000000000E+00
 0.9625000000000E+00 -0.4731587125634E+01  0.0000000000000E+00
 0.9900000000000E+00 -0.4731587125634E+01  0.0000000000000E+00
 0.1017500000000E+01 -0.4731587125634E+01  0.0000000000000E+00
 0.1045000000000E+01 -0.4731587125634E+01  0.0000000000000E+00
 0.1072500000000E+01 -0.4731587125634E+01  0.0000000000000E+00
-0.1161675590434E+01 -0.1821293974842E+01  0.0000000000000E+00
-0.1132018469080E+01 -0.1816772081031E+01  0.0000000000000E+00
-0.1102344135527E+01 -0.1812364599475E+01  0.0000000000000E+00
-0.1072653001422E+01 -0.1808071792594E+01  0.0000000000000E+00
-0.1042945459471E+01 -0.1803893913795E+01  0.0000000000000E+00
-0.1013221952450E+01 -0.1799831217138E+01  0.0000000000000E+00
-0.9834829017084E+00 -0.1795883946982E+01  0.0000000000000E+00
-0.9537287316532E+00 -0.1792052341512E+01  0.0000000000000E+00
-0.9239598612408E+00 -0.1788336631619E+01  0.0000000000000E+00
-0.8941767210493E+00 -0.1784737043031E+01  0.0000000000000E+00
-0.8643797539566E+00 -0.1781253796152E+01  0.0000000000000E+00
-0.8345693957871E+00 -0.1777887103664E+01  0.0000000000000E+00
-0.8047460850418E+00 -0.1774637171701E+01  0.0000000000000E+00
-0.7749102599775E+00 -0.1771504199483E+01  0.0000000000000E+00
-0.7450623578572E+00 -0.1768488379244E+01  0.0000000000000E+00
-0.7152028352234E+00 -0.1765589898169E+01  0.0000000000000E+00
-0.6853321404180E+00 -0.1762808935500E+01  0.0000000000000E+00
-0.6554507240472E+00 -0.1760145663610E+01  0.0000000000000E+00
-0.6255590388957E+00 -0.1757600247935E+01  0.0000000000000E+00
-0.5659320403842E+00 -0.1752877555980E+01  0.0000000000000E+00
-0.5361977827764E+00 -0.1750699115345E+01  0.0000000000000E+00
-0.5064551822954E+00 -0.1748637656849E+01  0.0000000000000E+00
-0.4767046834532E+00 -0.1746693307634E+01  0.0000000000000E+00
-0.4469467825907E+00 -0.1744866190914E+01  0.0000000000000E+00
-0.4171818756954E+00 -0.1743156416506E+01  0.0000000000000E+00
-0.3874104734057E+00 -0.1741564093885E+01  0.0000000000000E+00
-0.3576330176963E+00 -0.1740089321191E+01  0.0000000000000E+00
-0.3278499563594E+00 -0.1738732189839E+01  0.0000000000000E+00
-0.2980617833702E+00 -0.1737492785992E+01  0.0000000000000E+00
-0.2682689204519E+00 -0.1736371185422E+01  0.0000000000000E+00
-0.2384718656336E+00 -0.1735367459648E+01  0.0000000000000E+00
-0.2086710716336E+00 -0.1734481671049E+01  0.0000000000000E+00
-0.1788669979735E+00 -0.1733713874997E+01  0.0000000000000E+00
-0.1490601279746E+00 -0.1733064120054E+01  0.0000000000000E+00
-0.1192509059245E+00 -0.1732532446511E+01  0.0000000000000E+00
-0.8943981808141E-01 -0.1732118888112E+01  0.0000000000000E+00
-0.5962732433722E-01 -0.1731823470688E+01  0.0000000000000E+00
-0.2981389296327E-01 -0.1731646212812E+01  0.0000000000000E+00
 0.5727055635285E-08 -0.1731587125634E+01  0.0000000000000E+00
 0.2981390441730E-01 -0.1731646212857E+01  0.0000000000000E+00
 0.5962733579097E-01 -0.1731823470779E+01  0.0000000000000E+00
 0.8943982953471E-01 -0.1732118888248E+01  0.0000000000000E+00
 0.1192509173772E+00 -0.1732532446692E+01  0.0000000000000E+00
 0.1490601394265E+00 -0.1733064120281E+01  0.0000000000000E+00
 0.1788670094244E+00 -0.1733713875269E+01  0.0000000000000E+00
 0.2086710830833E+00 -0.1734481671367E+01  0.0000000000000E+00
 0.2384718770819E+00 -0.1735367460011E+01  0.0000000000000E+00
 0.2682689318987E+00 -0.1736371185830E+01  0.0000000000000E+00
 0.2980617948153E+00 -0.1737492786445E+01  0.0000000000000E+00
 0.3278499678026E+00 -0.1738732190338E+01  0.0000000000000E+00
 0.3576330291375E+00 -0.1740089321735E+01  0.0000000000000E+00
 0.3874104848446E+00 -0.1741564094474E+01  0.0000000000000E+00
 0.4171818871319E+00 -0.1743156417141E+01  0.0000000000000E+00
 0.4469467940246E+00 -0.1744866191594E+01  0.0000000000000E+00
 0.4767046948843E+00 -0.1746693308359E+01  0.0000000000000E+00
 0.5064551937236E+00 -0.1748637657619E+01  0.0000000000000E+00
 0.5361977942015E+00 -0.1750699116160E+01  0.0000000000000E+00
 0.5659320518060E+00 -0.1752877556840E+01  0.0000000000000E+00
 0.6255590497397E+00 -0.1757600248837E+01  0.0000000000000E+00
 0.6554507343169E+00 -0.1760145664505E+01  0.0000000000000E+00
 0.6853321501138E+00 -0.1762808936384E+01  0.0000000000000E+00
 0.7152028443456E+00 -0.1765589899036E+01  0.0000000000000E+00
 0.7450623664059E+00 -0.1768488380091E+01  0.0000000000000E+00
 0.7749102679531E+00 -0.1771504200305E+01  0.0000000000000E+00
 0.8047460924447E+00 -0.1774637172493E+01  0.0000000000000E+00
 0.8345694026177E+00 -0.1777887104422E+01  0.0000000000000E+00
[...]
<PointData Vectors="'U'">
<DataArray type="Float64" Name="U" NumberOfComponents="2" ComponentName0="U1" ComponentName1="U2" format="ascii">
-0.4038165149026E-38 -0.1010128289309E-37
-0.1432628855162E-37 -0.4334507807767E-37
 0.1535472353001E-37 -0.3857486380373E-37
-0.4254924610067E-01 -0.4752778868843E-01
-0.3449536669987E-01 -0.2292077776237E-01
-0.2645603159424E-01 -0.4526882955046E-02
-0.2337329881565E-01  0.4801533574637E-03
-0.8385728198811E+00 -0.6146795253758E+00
-0.3766961512505E+00  0.7499080840133E-01
-0.5510768515871E+00 -0.4832624597083E+00
-0.9652801166586E-01 -0.1996490369894E+00
-0.6452706936159E-37 -0.1546934209670E-36
-0.6343305835882E-37 -0.1411090474150E-36
-0.6177505602267E-37 -0.1313699342883E-36
-0.5998076231957E-37 -0.1238259505816E-36
-0.5818554733484E-37 -0.1176803267895E-36
-0.5643604530951E-37 -0.1124886847785E-36
-0.5474619902747E-37 -0.1079813467041E-36
-0.5311713689042E-37 -0.1039846171173E-36
-0.5154510126632E-37 -0.1003813127212E-36
-0.5002476477422E-37 -0.9708932462924E-37
-0.4855061940310E-37 -0.9404926620146E-37
-0.4711752810827E-37 -0.9121701143558E-37
-0.4572090804400E-37 -0.8855900761738E-37
-0.4435675427217E-37 -0.8604922722262E-37
-0.4302159869358E-37 -0.8366712618950E-37
-0.4171244703147E-37 -0.8139624068814E-37
-0.4042671275400E-37 -0.7922319708345E-37
-0.3916215599542E-37 -0.7713700190679E-37
-0.3791683060098E-37 -0.7512852230641E-37
-0.3668918932717E-37 -0.7319018347337E-37
-0.3547780329934E-37 -0.7132318073851E-37
-0.3428109522321E-37 -0.6951371914271E-37
-0.3309787959835E-37 -0.6775705140161E-37
-0.3192711805243E-37 -0.6604906014737E-37
-0.3076787884563E-37 -0.6438616004989E-37
-0.2961932130749E-37 -0.6276520493822E-37
-0.2848068287535E-37 -0.6118342530686E-37
-0.2735126819490E-37 -0.5963836427038E-37
-0.2623044009898E-37 -0.5812783353799E-37
-0.2511761192683E-37 -0.5664987602380E-37
-0.2401224121339E-37 -0.5520273028636E-37
-0.2291382429673E-37 -0.5378480872916E-37
-0.2182189188449E-37 -0.5239467193090E-37
-0.2073600536135E-37 -0.5103101204839E-37
-0.1965575369237E-37 -0.4969263802391E-37
-0.1858075097859E-37 -0.4837846146392E-37
-0.1751063438361E-37 -0.4708748832733E-37
-0.1644506257997E-37 -0.4581880883879E-37
-0.1538371451842E-37 -0.4457159158761E-37
-0.1327250186562E-37 -0.4213857866840E-37
-0.1222209019155E-37 -0.4095146988217E-37
-0.1117480777718E-37 -0.3978319280346E-37
-0.1013042761423E-37 -0.3863325240793E-37
-0.9088741937852E-38 -0.3750121795687E-37
-0.8049562890808E-38 -0.3638672489215E-37
-0.7012723588289E-38 -0.3528947654890E-37
-0.5978079273252E-38 -0.3420924873190E-37
-0.4945508903289E-38 -0.3314589382097E-37
-0.3914917014211E-38 -0.3209934715613E-37
-0.2886235828746E-38 -0.3106963487625E-37
-0.1859428049179E-38 -0.3005688245898E-37
-0.8344897888979E-39 -0.2906132672255E-37
 0.1885456181232E-39 -0.2808332868756E-37
 0.1209603226402E-38 -0.2712339009065E-37
 0.2228561376862E-38 -0.2618217277221E-37
 0.3245245149965E-38 -0.2526052223847E-37
 0.4259419111234E-38 -0.2435949585672E-37
 0.5270778786951E-38 -0.2348039638580E-37
 0.6279038452464E-38 -0.2262476950329E-37
 0.7283513337444E-38 -0.2179598447243E-37
 0.8283749508238E-38 -0.2099550749329E-37
 0.9278979910353E-38 -0.2022616742798E-37
 0.1026830226270E-37 -0.1949141365205E-37
 0.1125060497137E-37 -0.1879543491865E-37
 0.1222451216911E-37 -0.1814333989902E-37
 0.1318830820121E-37 -0.1754139636038E-37
 0.1413983141565E-37 -0.1699735370242E-37
 0.1507632130013E-37 -0.1652088350711E-37
 0.1599419278962E-37 -0.1612419325809E-37
 0.1688869432988E-37 -0.1582289623799E-37
 0.1775337667399E-37 -0.1563726514349E-37
 0.1857925044736E-37 -0.1559406300359E-37
 0.1935343996771E-37 -0.1572921725180E-37
 0.2005709590495E-37 -0.1609158769832E-37
 0.2066266767194E-37 -0.1674742306504E-37
 0.2113361594663E-37 -0.1778078558176E-37
 0.2145064036436E-37 -0.1925866613435E-37
 0.2185258014988E-37 -0.2094017627443E-37
-0.4144626152368E-01 -0.4337911772814E-01
-0.4067789040147E-01 -0.4071684929466E-01
-0.4004942257327E-01 -0.3871238128382E-01
-0.3951976847889E-01 -0.3706388511812E-01
-0.3905856017403E-01 -0.3563942981219E-01
-0.3864531976265E-01 -0.3436998918591E-01
-0.3826632204729E-01 -0.3321546104610E-01
-0.3791244144922E-01 -0.3215054891752E-01
-0.3757755708006E-01 -0.3115820100382E-01
-0.3725749075961E-01 -0.3022627976062E-01
-0.3694932498181E-01 -0.2934575348747E-01
-0.3665097217770E-01 -0.2850965500870E-01
-0.3636090350796E-01 -0.2771245124803E-01
-0.3607797696595E-01 -0.2694964276923E-01
-0.3580132804683E-01 -0.2621749894337E-01
-0.3553030142209E-01 -0.2551287657237E-01
-0.3526441104210E-01 -0.2483308869677E-01
-0.3500332906780E-01 -0.2417580640343E-01
-0.3474689639583E-01 -0.2353895597718E-01
-0.3424833162312E-01 -0.2232386952683E-01
-0.3400348185001E-01 -0.2174153800443E-01
-0.3376101273938E-01 -0.2117297162195E-01
-0.3352098149010E-01 -0.2061718370129E-01
-0.3328339840511E-01 -0.2007320037943E-01
-0.3304824781978E-01 -0.1954010540671E-01
-0.3281550474871E-01 -0.1901705249915E-01
-0.3258514158182E-01 -0.1850326099015E-01
-0.3235713308923E-01 -0.1799801308051E-01
-0.3213145887899E-01 -0.1750064970095E-01
-0.3190810335034E-01 -0.1701056385305E-01
-0.3168705694070E-01 -0.1652719883047E-01
-0.3146831491596E-01 -0.1605004241140E-01
-0.3125187725007E-01 -0.1557862438758E-01
-0.3103774811319E-01 -0.1511251389143E-01
-0.3082593473441E-01 -0.1465131583521E-01
-0.3061644728328E-01 -0.1419466991706E-01
-0.3040929768427E-01 -0.1374224756848E-01
-0.3020449918573E-01 -0.1329375074292E-01
-0.3000206565807E-01 -0.1284891027770E-01
-0.2980201093171E-01 -0.1240748447007E-01
-0.2960434822046E-01 -0.1196925794836E-01
-0.2940908957490E-01 -0.1153404070361E-01
-0.2921624531448E-01 -0.1110166715864E-01
-0.2902582348650E-01 -0.1067199537304E-01
-0.2883782961969E-01 -0.1024490699295E-01
-0.2865226585700E-01 -0.9820305877487E-02
-0.2846913107323E-01 -0.9398119039029E-02
-0.2828842012892E-01 -0.8978295713020E-02
-0.2811012368497E-01 -0.8560807785148E-02
-0.2793422828980E-01 -0.8145650950178E-02
-0.2776071555032E-01 -0.7732843744658E-02
-0.2758956310312E-01 -0.7322430724493E-02
-0.2742074436859E-01 -0.6914482400638E-02
-0.2725422994681E-01 -0.6509097983525E-02
-0.2708999072745E-01 -0.6106409402155E-02
-0.2692800239162E-01 -0.5706582313639E-02
-0.2676826297935E-01 -0.5309826064751E-02
-0.2661081268240E-01 -0.4916383442331E-02
-0.2630149340851E-01 -0.4139054671013E-02
-0.2614859689424E-01 -0.3754921083539E-02
-0.2599720279660E-01 -0.3375288643609E-02
-0.2584725926060E-01 -0.3000725790527E-02
-0.2569869189633E-01 -0.2631851166258E-02
-0.2555140783716E-01 -0.2269372308582E-02
-0.2540529450580E-01 -0.1914120208267E-02
-0.2526021967442E-01 -0.1567084387758E-02
-0.2511602977386E-01 -0.1229457899690E-02
-0.2497254512135E-01 -0.9026980313738E-03
-0.2482955002895E-01 -0.5886130417475E-03
-0.2468677400173E-01 -0.2894921635331E-03
-0.2454385675332E-01 -0.8309981555552E-05
-0.2440028460051E-01  0.2509320580609E-03
-0.2425527622536E-01  0.4825952857153E-03
-0.2410757701007E-01  0.6782223626648E-03
-0.2395509463636E-01  0.8239921856652E-03
-0.2379401160093E-01  0.8944910444183E-03
-0.2361712517324E-01  0.8321140947327E-03
-0.2107377770863E+00 -0.1567944461474E+00
-0.3000669072468E+00 -0.2471228599586E+00
-0.3715981121669E+00 -0.3181852555002E+00
-0.4328401147103E+00 -0.3806963353808E+00
-0.4880118019473E+00 -0.4372117648675E+00
-0.5394313321383E+00 -0.4872978665574E+00
-0.5879674878599E+00 -0.5276070897109E+00
-0.6331894573237E+00 -0.5585972934177E+00
-0.6747299473341E+00 -0.5823637711486E+00
-0.7124672938720E+00 -0.6003042316554E+00
-0.7462565329240E+00 -0.6132150664090E+00
-0.7758577101965E+00 -0.6216296711191E+00
-0.8009903645331E+00 -0.6261624621915E+00
-0.8213466153374E+00 -0.6273982675849E+00
-0.8366316782530E+00 -0.6259445057637E+00
-0.8467027647216E+00 -0.6226362085525E+00
-0.8515593393244E+00 -0.6187110746184E+00
-0.8511435717639E+00 -0.6149013419464E+00
-0.8462958923375E+00 -0.6128044158393E+00
-0.8334401746675E+00 -0.6187311658127E+00
-0.8280162365960E+00 -0.6258091133751E+00
-0.8227101834322E+00 -0.6370458174460E+00
-0.8178261945535E+00 -0.6542293619144E+00
-0.8130481202899E+00 -0.6780875785512E+00
-0.8081741144970E+00 -0.7059227379755E+00
-0.8030241058571E+00 -0.7340869511233E+00
-0.7965102816353E+00 -0.7606824644536E+00
-0.7874188646324E+00 -0.7847358801257E+00
-0.7748285400129E+00 -0.8057790404474E+00
-0.7584050941365E+00 -0.8235852283009E+00
-0.7385256789584E+00 -0.8376186944300E+00
-0.7158722960242E+00 -0.8471539567939E+00
-0.6911205647178E+00 -0.8515814287685E+00
-0.6648771768558E+00 -0.8504485148183E+00
-0.6376903278066E+00 -0.8434382069627E+00
-0.6100709164669E+00 -0.8303478842489E+00
-0.5825115493497E+00 -0.8110771151857E+00
-0.5555057813420E+00 -0.7856232979696E+00
-0.5295743726535E+00 -0.7540859378467E+00
-0.5052576423547E+00 -0.7166669521397E+00
-0.4829804368148E+00 -0.6736320422544E+00
-0.4630509092924E+00 -0.6253927525778E+00
-0.4456905601815E+00 -0.5725498957765E+00
-0.4310508559250E+00 -0.5159437590279E+00
-0.4192245351921E+00 -0.4567248301298E+00
-0.4102643339766E+00 -0.3964484883371E+00
-0.4042227587212E+00 -0.3372040642811E+00
-0.4012435006796E+00 -0.2818548037929E+00
-0.4015069867428E+00 -0.2338721597606E+00
-0.4038816884777E+00 -0.1932927432946E+00
-0.4066126518855E+00 -0.1573099862950E+00
-0.4090284429419E+00 -0.1242007274304E+00
-0.4106451199938E+00 -0.9293995908375E-01
-0.4110011911877E+00 -0.6287688918416E-01
-0.4095386804631E+00 -0.3362532295584E-01
-0.4054933571610E+00 -0.5043212013142E-02
-0.3987381818386E+00  0.2276666755702E-01
-0.3893429805139E+00  0.4961728103815E-01
-0.3462117147447E+00  0.1064704643638E+00
-0.3063012400345E+00  0.1258427093963E+00
-0.2619858981851E+00  0.1319014559153E+00
-0.2177178110293E+00  0.1295131770399E+00
-0.1751416561658E+00  0.1241953385806E+00
-0.1347609334761E+00  0.1157984531353E+00
-0.9710366438808E-01  0.1048821861575E+00
-0.6257207820376E-01  0.9210508121094E-01
-0.3148823054959E-01  0.7796526840484E-01
-0.4139766945053E-02  0.6288128557888E-01
 0.1923221700407E-01  0.4736765064942E-01
 0.3839332950041E-01  0.3187314930129E-01
 0.5304596804418E-01  0.1680655699430E-01
 0.6273823943134E-01  0.2636122172049E-02
 0.6693881887280E-01 -0.9773127920181E-02
 0.6515499179362E-01 -0.1935410341763E-01
 0.5658988045648E-01 -0.2533189440757E-01
 0.4024990370101E-01 -0.2629703398442E-01
 0.1585841524956E-01 -0.1839742128395E-01
-0.6778285573176E-03 -0.1246930902660E-02
-0.1117241651744E-02 -0.2176488113702E-02
-0.1500680585444E-02 -0.3061718322759E-02
-0.1858202631392E-02 -0.3920215956465E-02
-0.2209374329901E-02 -0.4764335106662E-02
-0.2563785579390E-02 -0.5599797973097E-02
-0.2928097325436E-02 -0.6429712034922E-02
-0.3306722628145E-02 -0.7255946554233E-02
-0.3702838635850E-02 -0.8079675513533E-02
-0.4118757674807E-02 -0.8901694214255E-02
-0.4556201587301E-02 -0.9722586171400E-02
-0.5016464728779E-02 -0.1054282652643E-01
-0.5500529969637E-02 -0.1136285148772E-01
-0.6009149751960E-02 -0.1218310508374E-01
-0.6542907416841E-02 -0.1300407541104E-01
-0.7102267084519E-02 -0.1382632766621E-01
-0.7687621027434E-02 -0.1465054290352E-01
-0.8299297972442E-02 -0.1547751175887E-01
-0.8937647627071E-02 -0.1630824232229E-01
-0.9603020904874E-02 -0.1714393891247E-01
-0.1029582815228E-01 -0.1798610989842E-01
-0.1101656401354E-01 -0.1883668306090E-01
-0.1176585465721E-01 -0.1969832329127E-01
-0.1254488447301E-01 -0.2057527977337E-01
-0.1335609726998E-01 -0.2147346666883E-01
-0.1420290448411E-01 -0.2239832869806E-01
-0.1508910644755E-01 -0.2335416812375E-01
-0.1601868104390E-01 -0.2434455806131E-01
-0.1699593153736E-01 -0.2537308719787E-01
-0.1802585856601E-01 -0.2644409749716E-01
-0.1911468252797E-01 -0.2756327217876E-01
-0.2027053182117E-01 -0.2873805946104E-01
-0.2150413828817E-01 -0.2997741891178E-01
-0.2282916193211E-01 -0.3129099968505E-01
-0.2426382852790E-01 -0.3269221039807E-01
-0.2583413330279E-01 -0.3420358244049E-01
-0.2758343365279E-01 -0.3586228629729E-01
-0.2957318043484E-01 -0.3773132482231E-01
-0.3198773028248E-01 -0.3992929185917E-01
-0.3486750304867E-01 -0.4287287001281E-01
-0.2373263584010E-01  0.1183083250664E-02
-0.2323642143035E-01  0.1579931613045E-02
-0.2263397101133E-01  0.1863281861944E-02
-0.2193262291874E-01  0.2097789661905E-02
-0.2116888799088E-01  0.2299836247552E-02
-0.2035770900370E-01  0.2477029899940E-02
-0.1951105914027E-01  0.2633370037380E-02
-0.1863798086327E-01  0.2771222366621E-02
-0.1774623667288E-01  0.2892283051345E-02
-0.1684289257582E-01  0.2996886277136E-02
-0.1593440333256E-01  0.3084819590555E-02
-0.1502648660743E-01  0.3156304100923E-02
-0.1412421624704E-01  0.3211734105173E-02
-0.1323210848214E-01  0.3251507968695E-02
-0.1235414618931E-01  0.3275855091887E-02
-0.1149378165104E-01  0.3284691696808E-02
-0.1065392374345E-01  0.3277621511164E-02
-0.9836968545627E-02  0.3254170361636E-02
-0.9044898234406E-02  0.3214371451838E-02
-0.8279419059179E-02  0.3159293610850E-02
-0.7542044438901E-02  0.3090081627805E-02
-0.6834118398063E-02  0.3007776001913E-02
-0.6156842110765E-02  0.2913327846951E-02
-0.5511302208150E-02  0.2807611084495E-02
-0.4898464030185E-02  0.2691428256744E-02
-0.4319244683319E-02  0.2565529861674E-02
-0.3774474493507E-02  0.2430617164475E-02
-0.3264938580226E-02  0.2287359847282E-02
-0.2791378760137E-02  0.2136409319851E-02
-0.2354497076506E-02  0.1978414343532E-02
-0.1954955387240E-02  0.1814038797733E-02
-0.1593368050899E-02  0.1643981631640E-02
-0.1270283324628E-02  0.1468998805401E-02
-0.9861524993250E-03  0.1289928939320E-02
-0.7412722958266E-03  0.1107723842461E-02
-0.5356954427288E-03  0.9234824431377E-03
-0.3690137406496E-03  0.7384983390607E-03
-0.2401136498835E-03  0.5542973269520E-03
-0.1457371253565E-03  0.3724666357204E-03
-0.7982983654331E-04  0.1965119945096E-03
-0.5410172641556E+00 -0.4848464751412E+00
-0.5306199294189E+00 -0.4862390431143E+00
-0.5198603735301E+00 -0.4873783086826E+00
-0.5087441646862E+00 -0.4882132727083E+00
-0.4972851255740E+00 -0.4886955387218E+00
-0.4855020570278E+00 -0.4887800497413E+00
-0.4734172738049E+00 -0.4884252642141E+00
-0.4610556800933E+00 -0.4875929790275E+00
-0.4484442992533E+00 -0.4862484260444E+00
-0.4356118012990E+00 -0.4843604317978E+00
-0.4225882154819E+00 -0.4819015688128E+00
-0.4094047318122E+00 -0.4788481839325E+00
-0.3960935919499E+00 -0.4751806852432E+00
-0.3826879741026E+00 -0.4708839672472E+00
-0.3692218401854E+00 -0.4659477396994E+00
-0.3557297236261E+00 -0.4603667672676E+00
-0.3422464988798E+00 -0.4541410408268E+00
-0.3288071175096E+00 -0.4472758778047E+00
-0.3154463220146E+00 -0.4397819525320E+00
-0.3021983433353E+00 -0.4316752552130E+00
-0.2890965892882E+00 -0.4229769779014E+00
-0.2761733246260E+00 -0.4137133610133E+00
-0.2634593505853E+00 -0.4039155071144E+00
-0.2509836715544E+00 -0.3936190785478E+00
-0.2387731698522E+00 -0.3828639098065E+00
-0.2268523035816E+00 -0.3716935390279E+00
-0.2152428386027E+00 -0.3601546555407E+00
-0.2039636289971E+00 -0.3482964718514E+00
-0.1930304312802E+00 -0.3361700156122E+00
-0.1824557661173E+00 -0.3238274251451E+00
-0.1722487540186E+00 -0.3113213645514E+00
-0.1624149338178E+00 -0.2987045643055E+00
-0.1529561366835E+00 -0.2860291764119E+00
-0.1438704484771E+00 -0.2733461383373E+00
-0.1351521684163E+00 -0.2607043716465E+00
-0.1267918702487E+00 -0.2481503039758E+00
-0.1187761210787E+00 -0.2357275833292E+00
-0.1110862267521E+00 -0.2234765601561E+00
-0.1036944595591E+00 -0.2114341729981E+00
-0.5304729459448E+00 -0.4547521458007E+00
-0.5093349567403E+00 -0.4263389326934E+00
-0.4876148226423E+00 -0.3979695807476E+00
-0.4652736170612E+00 -0.3696899279729E+00
-0.4422932663331E+00 -0.3415617949407E+00
-0.4186665629238E+00 -0.3136498899725E+00
-0.3943791268330E+00 -0.2860276071884E+00
-0.3694241341432E+00 -0.2587837515341E+00
-0.3438124060220E+00 -0.2320288626881E+00
-0.3175774390778E+00 -0.2059003845658E+00
-0.2907700940137E+00 -0.1805626009714E+00
-0.2634440898034E+00 -0.1562015768290E+00
-0.2356452494602E+00 -0.1330202963150E+00
-0.2074170636328E+00 -0.1112373972418E+00
-0.1788192621883E+00 -0.9108639286327E-01
-0.1499388160126E+00 -0.7280925532009E-01
-0.1208870695736E+00 -0.5664656358015E-01
-0.9181453471585E-01 -0.4282872520533E-01
-0.6292971377927E-01 -0.3155254633328E-01
-0.8088152296762E-01 -0.1877529799956E+00
-0.6601893152349E-01 -0.1758631768240E+00
-0.5200127814286E-01 -0.1638859238532E+00
-0.3888308374624E-01 -0.1518674132914E+00
-0.2671392940326E-01 -0.1398762652391E+00
-0.1554253518188E-01 -0.1279785566506E+00
-0.5440263616552E-02 -0.1162345496789E+00
 0.3508898297987E-02 -0.1046980796336E+00
 0.1121381056787E-01 -0.9341735034654E-01
 0.1757722937859E-01 -0.8243883607745E-01
 0.2249197609028E-01 -0.7181450593704E-01
 0.2583339396645E-01 -0.6160847399535E-01
 0.2745240773575E-01 -0.5189830588763E-01
 0.2717505995848E-01 -0.4277056996162E-01
 0.2480626614138E-01 -0.3431539554558E-01
 0.2013488728439E-01 -0.2662006766615E-01
 0.1293794845498E-01 -0.1975697755800E-01
 0.2970390255688E-02 -0.1377633808661E-01
-0.1005057843552E-01 -0.8702227364058E-02
-0.5830405070977E+00 -0.5055370280934E+00
-0.6141870066511E+00 -0.5264661407193E+00
-0.6442500793708E+00 -0.5458579978005E+00
-0.6730040151278E+00 -0.5635443979942E+00
-0.7002308578039E+00 -0.5793740780008E+00
-0.7257194783323E+00 -0.5932234603384E+00
-0.7492676488386E+00 -0.6050019177140E+00
-0.7706853258738E+00 -0.6146568904648E+00
-0.7897984682904E+00 -0.6221786088332E+00
-0.8064536167238E+00 -0.6276047017985E+00
-0.8205236690360E+00 -0.6310247226623E+00
-0.8319154865612E+00 -0.6325845420676E+00
-0.8405801811173E+00 -0.6324903923390E+00
-0.8465271643648E+00 -0.6310120389798E+00
-0.8498431949875E+00 -0.6284839498450E+00
-0.8507173306816E+00 -0.6253020522438E+00
-0.8494712094671E+00 -0.6219112900749E+00
-0.8465874019990E+00 -0.6187733765544E+00
-0.8427142400394E+00 -0.6162965995524E+00
-0.1005540444799E+00 -0.1928902313886E+00
-0.1059478113423E+00 -0.1845197301131E+00
-0.1128365440875E+00 -0.1746781470407E+00
-0.1212450254103E+00 -0.1635166327462E+00
-0.1311645966251E+00 -0.1511925699586E+00
-0.1425555243545E+00 -0.1378783529531E+00
-0.1553450457135E+00 -0.1237575969168E+00
-0.1694258210717E+00 -0.1090189162169E+00
-0.1846568270652E+00 -0.9384763733408E-01
-0.2008670650632E+00 -0.7841646405583E-01
-0.2178622505726E+00 -0.6287579520136E-01
-0.2354344452579E+00 -0.4734454480521E-01
-0.2533742672031E+00 -0.3190254367140E-01
-0.2714847282662E+00 -0.1658589339352E-01
-0.2895948604828E+00 -0.1386845966749E-02
-0.3075702973076E+00  0.1374041051502E-01
-0.3253173220207E+00  0.2886755914885E-01
-0.3427779077563E+00  0.4407503668792E-01
-0.3599144705653E+00  0.5943243845251E-01
-0.5627610295849E-03 -0.1050614258059E-02
-0.1034393953164E-02 -0.2034872071184E-02
-0.1417477985815E-02 -0.2928127021116E-02
-0.1778381031265E-02 -0.3791761294677E-02
-0.2131083618140E-02 -0.4636484018320E-02
-0.2486922407846E-02 -0.5469947631078E-02
-0.2852436229611E-02 -0.6296022067129E-02
-0.3232208542983E-02 -0.7117102552470E-02
-0.3629455272279E-02 -0.7934710379535E-02
-0.4046524531904E-02 -0.8749884414767E-02
-0.4485154639548E-02 -0.9563384115956E-02
-0.4946648579282E-02 -0.1037581447935E-01
-0.5431991445606E-02 -0.1118770866655E-01
-0.5941933599987E-02 -0.1199958308483E-01
-0.6477052930140E-02 -0.1281197901129E-01
-0.7037805324058E-02 -0.1362549905774E-01
-0.7624572266678E-02 -0.1444084813264E-01
-0.8237669021677E-02 -0.1525882841606E-01
-0.8877428740726E-02 -0.1608044741592E-01
-0.9544181460413E-02 -0.1690689638702E-01
-0.1023830991554E-01 -0.1773965533872E-01
-0.1096026722780E-01 -0.1858060548251E-01
-0.1171062975949E-01 -0.1943222157677E-01
-0.1249056870764E-01 -0.2029781635227E-01
-0.1330259510385E-01 -0.2118202606889E-01
-0.1415023790432E-01 -0.2208966693975E-01
-0.1503739939951E-01 -0.2302495458322E-01
-0.1596811962772E-01 -0.2399154381788E-01
-0.1694673190761E-01 -0.2499296666394E-01
-0.1797826095789E-01 -0.2603317396113E-01
-0.1906898027669E-01 -0.2711701799824E-01
-0.2022714130973E-01 -0.2825057736213E-01
-0.2146359072268E-01 -0.2944152244662E-01
-0.2279204846862E-01 -0.3069845662807E-01