<VTKFile type="UnstructuredGrid" version="1,0" byte_order="LittleEndian">
<UnstructuredGrid>
<Piece NumberOfPoints="5802" NumberOfCells="5680">
<Points>
<DataArray type="Float64" NumberOfComponents="3" format="ascii">
-0.1100000000000E+01 -0.4731587125634E+01  0.0000000000000E+00
 0.0000000000000E+00 -0.4731587125634E+01  0.0000000000000E+00
 0.1100000000000E+01 -0.4731587125634E+01  0.0000000000000E+00
-0.1191315091097E+01 -0.1825930012610E+01  0.0000000000000E+00
-0.5956575398395E+00 -0.1755172846926E+01  0.0000000000000E+00
 0.5956575512579E+00 -0.1755172847830E+01  0.0000000000000E+00
 0.1191315091097E+01 -0.1825930012610E+01  0.0000000000000E+00
-0.1487255332335E+01  0.3711246317436E+00  0.0000000000000E+00
 0.1487255329206E+01  0.3711246337271E+00  0.0000000000000E+00
-0.6187500000000E+00 -0.4973806884503E+00  0.0000000000000E+00
 0.6187500000000E+00 -0.4973806884503E+00  0.0000000000000E+00
-0.1072500000000E+01 -0.4731587125634E+01  0.0000000000000E+00
-0.1045000000000E+01 -0.4731587125634E+01  0.0000000000000E+00
-0.1017500000000E+01 -0.4731587125634E+01  0.0000000000000E+00
-0.9900000000000E+00 -0.4731587125634E+01  0.0000000000000E+00
-0.9625000000000E+00 -0.4731587125634E+01  0.0000000000000E+00
-0.9350000000000E+00 -0.4731587125634E+01  0.0000000000000E+00
-0.9075000000000E+00 -0.4731587125634E+01  0.0000000000000E+00
-0.8800000000000E+00 -0.4731587125634E+01  0.0000000000000E+00
-0.8525000000000E+00 -0.4731587125634E+01  0.0000000000000E+00
-0.8250000000000E+00 -0.4731587125634E+01  0.0000000000000E+00
-0.7975000000000E+00 -0.4731587125634E+01  0.0000000000000E+00
-0.7700000000000E+00 -0.4731587125634E+01  0.0000000000000E+00
-0.7425000000000E+00 -0.4731587125634E+01  0.0000000000000E+00
-0.7150000000000E+00 -0.4731587125634E+01  0.0000000000000E+00
-0.6875000000000E+00 -0.4731587125634E+01  0.0000000000000E+00
-0.6600000000000E+00 -0.4731587125634E+01  0.0000000000000E+00
-0.6325000000000E+00 -0.4731587125634E+01  0.0000000000000E+00
-0.6050000000000E+00 -0.4731587125634E+01  0.0000000000000E+00
-0.5775000000000E+00 -0.4731587125634E+01  0.0000000000000E+00
-0.5500000000000E+00 -0.4731587125634E+01  0.0000000000000E+00
-0.5225000000000E+00 -0.4731587125634E+01  0.0000000000000E+00
-0.4950000000000E+00 -0.4731587125634E+01  0.0000000000000E+00
-0.4675000000000E+00 -0.4731587125634E+01  0.0000000000000E+00
-0.4400000000000E+00 -0.4731587125634E+01  0.0000000000000E+00
-0.4125000000000E+00 -0.4731587125634E+01  0.0000000000000E+00
-0.3850000000000E+00 -0.4731587125634E+01  0.0000000000000E+00
-0.3575000000000E+00 -0.4731587125634E+01  0.0000000000000E+00
-0.3300000000000E+00 -0.4731587125634E+01  0.0000000000000E+00
-0.3025000000000E+00 -0.4731587125634E+01  0.0000000000000E+00
-0.2750000000000E+00 -0.4731587125634E+01  0.0000000000000E+00
-0.2475000000000E+00 -0.4731587125634E+01  0.0000000000000E+00
-0.2200000000000E+00 -0.4731587125634E+01  0.0000000000000E+00
-0.1925000000000E+00 -0.4731587125634E+01  0.0000000000000E+00
-0.1650000000000E+00 -0.4731587125634E+01  0.0000000000000E+00
-0.1375000000000E+00 -0.4731587125634E+01  0.0000000000000E+00
-0.1100000000000E+00 -0.4731587125634E+01  0.0000000000000E+00
-0.8250000000000E-01 -0.4731587125634E+01  0.0000000000000E+00
-0.5500000000000E-01 -0.4731587125634E+01  0.0000000000000E+00
-0.2750000000000E-01 -0.4731587125634E+01  0.0000000000000E+00
 0.2750000000000E-01 -0.4731587125634E+01  0.0000000000000E+00
 0.5500000000000E-01 -0.4731587125634E+01  0.0000000000000E+00
 0.8250000000000E-01 -0.4731587125634E+01  0.0000000000000E+00
 0.1100000000000E+00 -0.4731587125634E+01  0.0000000000000E+00
 0.1375000000000E+00 -0.4731587125634E+01  0.0000000000000E+00
 0.1650000000000E+00 -0.4731587125634E+01  0.0000000000000E+00
 0.1925000000000E+00 -0.4731587125634E+01  0.0000000000000E+00
 0.2200000000000E+00 -0.4731587125634E+01  0.0000000000000E+00
 0.2475000000000E+00 -0.4731587125634E+01  0.0000000000000E+00
 0.2750000000000E+00 -0.4731587125634E+01  0.0000000000000E+00
 0.3025000000000E+00 -0.4731587125634E+01  0.0000000000000E+00
 0.3300000000000E+00 -0.4731587125634E+01  0.0000000000000E+00
 0.3575000000000E+00 -0.4731587125634E+01  0.0000000000000E+00
 0.3850000000000E+00 -0.4731587125634E+01  0.0000000000000E+00
 0.4125000000000E+00 -0.4731587125634E+01  0.0000000000000E+00
 0.4400000000000E+00 -0.4731587125634E+01  0.0000000000000E+00
 0.4675000000000E+00 -0.4731587125634E+01  0.0000000000000E+00
 0.4950000000000E+00 -0.4731587125634E+01  0.0000000000000E+00
 0.5225000000000E+00 -0.4731587125634E+01  0.0000000000000E+00
 0.5500000000000E+00 -0.4731587125634E+01  0.0000000000000E+00
 0.5775000000000E+00 -0.4731587125634E+01  0.0000000000000E+00
 0.6050000000000E+00 -0.4731587125634E+01  0.0000000000000E+00
 0.6325000000000E+00 -0.4731587125634E+01  0.0000000000000E+00
 0.6600000000000E+00 -0.4731587125634E+01  0.0000000000000E+00
 0.6875000000000E+00 -0.4731587125634E+01  0.0000000000000E+00
 0.7150000000000E+00 -0.4731587125634E+01  0.0000000000000E+00
 0.7425000000000E+00 -0.4731587125634E+01  0.0000000000000E+00
 0.7700000000000E+00 -0.4731587125634E+01  0.0000000000000E+00
 0.7975000000000E+00 -0.4731587125634E+01  0.0000000000000E+00
 0.8250000000000E+00 -0.4731587125634E+01  0.0000000000000E+00
 0.8525000000000E+00 -0.4731587125634E+01  0.0000000000000E+00
 0.8800000000000E+00 -0.4731587125634E+01  0.0000000000000E+00
 0.9075000000000E+00 -0.4731587125634E+01  0.0000000000000E+00
 0.9350000000000E+00 -0.4731587125634E+01  0.0000000000000E+00
 0.9625000000000E+00 -0.4731587125634E+01  0.0000000000000E+00
 0.9900000000000E+00 -0.4731587125634E+01  0.0000000000000E+00
 0.1017500000000E+01 -0.4731587125634E+01  0.0000000000000E+00
 0.1045000000000E+01 -0.4731587125634E+01  0.0000000000000E+00
 0.1072500000000E+01 -0.4731587125634E+01  0.0000000000000E+00
-0.1161675590434E+01 -0.1821293974842E+01  0.0000000000000E+00
-0.1132018469080E+01 -0.1816772081031E+01  0.0000000000000E+00
-0.1102344135527E+01 -0.1812364599475E+01  0.0000000000000E+00
-0.1072653001422E+01 -0.1808071792594E+01  0.0000000000000E+00
-0.1042945459471E+01 -0.1803893913795E+01  0.0000000000000E+00
-0.1013221952450E+01 -0.1799831217138E+01  0.0000000000000E+00
-0.9834829017084E+00 -0.1795883946982E+01  0.0000000000000E+00
-0.9537287316532E+00 -0.1792052341512E+01  0.0000000000000E+00
-0.9239598612408E+00 -0.1788336631619E+01  0.0000000000000E+00
-0.8941767210493E+00 -0.1784737043031E+01  0.0000000000000E+00
-0.8643797539566E+00 -0.1781253796152E+01  0.0000000000000E+00
-0.8345693957871E+00 -0.1777887103664E+01  0.0000000000000E+00
-0.8047460850418E+00 -0.1774637171701E+01  0.0000000000000E+00
-0.7749102599775E+00 -0.1771504199483E+01  0.0000000000000E+00
-0.7450623578572E+00 -0.1768488379244E+01  0.0000000000000E+00
-0.7152028352234E+00 -0.1765589898169E+01  0.0000000000000E+00
-0.6853321404180E+00 -0.1762808935500E+01  0.0000000000000E+00
-0.6554507240472E+00 -0.1760145663610E+01  0.0000000000000E+00
-0.6255590388957E+00 -0.1757600247935E+01  0.0000000000000E+00
-0.5659320403842E+00 -0.1752877555980E+01  0.0000000000000E+00
-0.5361977827764E+00 -0.1750699115345E+01  0.0000000000000E+00
-0.5064551822954E+00 -0.1748637656849E+01  0.0000000000000E+00
-0.4767046834532E+00 -0.1746693307634E+01  0.0000000000000E+00
-0.4469467825907E+00 -0.1744866190914E+01  0.0000000000000E+00
-0.4171818756954E+00 -0.1743156416506E+01  0.0000000000000E+00
-0.3874104734057E+00 -0.1741564093885E+01  0.0000000000000E+00
-0.3576330176963E+00 -0.1740089321191E+01  0.0000000000000E+00
-0.3278499563594E+00 -0.1738732189839E+01  0.0000000000000E+00
-0.2980617833702E+00 -0.1737492785992E+01  0.0000000000000E+00
-0.2682689204519E+00 -0.1736371185422E+01  0.0000000000000E+00
-0.2384718656336E+00 -0.1735367459648E+01  0.0000000000000E+00
-0.2086710716336E+00 -0.1734481671049E+01  0.0000000000000E+00
-0.1788669979735E+00 -0.1733713874997E+01  0.0000000000000E+00
-0.1490601279746E+00 -0.1733064120054E+01  0.0000000000000E+00
-0.1192509059245E+00 -0.1732532446511E+01  0.0000000000000E+00
-0.8943981808141E-01 -0.1732118888112E+01  0.0000000000000E+00
-0.5962732433722E-01 -0.1731823470688E+01  0.0000000000000E+00
-0.2981389296327E-01 -0.1731646212812E+01  0.0000000000000E+00
 0.5727055635285E-08 -0.1731587125634E+01  0.0000000000000E+00
 0.2981390441730E-01 -0.1731646212857E+01  0.0000000000000E+00
 0.5962733579097E-01 -0.1731823470779E+01  0.0000000000000E+00
 0.8943982953471E-01 -0.1732118888248E+01  0.0000000000000E+00
 0.1192509173772E+00 -0.1732532446692E+01  0.0000000000000E+00
 0.1490601394265E+00 -0.1733064120281E+01  0.0000000000000E+00
 0.1788670094244E+00 -0.1733713875269E+01  0.0000000000000E+00
 0.2086710830833E+00 -0.1734481671367E+01  0.0000000000000E+00
 0.2384718770819E+00 -0.1735367460011E+01  0.0000000000000E+00
 0.2682689318987E+00 -0.1736371185830E+01  0.0000000000000E+00
 0.2980617948153E+00 -0.1737492786445E+01  0.0000000000000E+00
 0.3278499678026E+00 -0.1738732190338E+01  0.0000000000000E+00
 0.3576330291375E+00 -0.1740089321735E+01  0.0000000000000E+00
 0.3874104848446E+00 -0.1741564094474E+01  0.0000000000000E+00
 0.4171818871319E+00 -0.1743156417141E+01  0.0000000000000E+00
 0.4469467940246E+00 -0.1744866191594E+01  0.0000000000000E+00
 0.4767046948843E+00 -0.1746693308359E+01  0.0000000000000E+00
 0.5064551937236E+00 -0.1748637657619E+01  0.0000000000000E+00
 0.5361977942015E+00 -0.1750699116160E+01  0.0000000000000E+00
 0.5659320518060E+00 -0.1752877556840E+01  0.0000000000000E+00
 0.6255590497397E+00 -0.1757600248837E+01  0.0000000000000E+00
 0.6554507343169E+00 -0.1760145664505E+01  0.0000000000000E+00
 0.6853321501138E+00 -0.1762808936384E+01  0.0000000000000E+00
 0.7152028443456E+00 -0.1765589899036E+01  0.0000000000000E+00
 0.7450623664059E+00 -0.1768488380091E+01  0.0000000000000E+00
 0.7749102679531E+00 -0.1771504200305E+01  0.0000000000000E+00
 0.8047460924447E+00 -0.1774637172493E+01  0.0000000000000E+00
 0.8345694026177E+00 -0.1777887104422E+01  0.0000000000000E+00
[...]
<PointData Vectors="'U'">
<DataArray type="Float64" Name="U" NumberOfComponents="2" ComponentName0="U1" ComponentName1="U2" format="ascii">
 0.2878071603157E-37  0.7276675674795E-37
-0.2166146530229E-37 -0.5527829263721E-37
 0.4816650842373E-37 -0.1214256741819E-36
-0.1287421367435E-01 -0.3133933176630E-01
-0.5481703814877E-02 -0.1832959579684E-01
 0.5481703932037E-02 -0.1832959585438E-01
 0.1287421368752E-01 -0.3133933177747E-01
-0.2720680809649E+00 -0.3140004243908E+00
 0.2720680805702E+00 -0.3140004255013E+00
-0.3159100202260E+00 -0.4640541523366E+00
 0.3159100204040E+00 -0.4640541524432E+00
-0.5557525606597E-37 -0.5526240736054E-37
-0.5398500753993E-37 -0.5337788556341E-37
-0.5351940795610E-37 -0.5034139356917E-37
-0.5303758667622E-37 -0.4770149124325E-37
-0.5244070010330E-37 -0.4559881583196E-37
-0.5175567936827E-37 -0.4396091686196E-37
-0.5101301402877E-37 -0.4269749620865E-37
-0.5023335310798E-37 -0.4173320804165E-37
-0.4942941417315E-37 -0.4100982132885E-37
-0.4860888990936E-37 -0.4048296685191E-37
-0.4777646931904E-37 -0.4011868223052E-37
-0.4693506493979E-37 -0.3989068828048E-37
-0.4608653105263E-37 -0.3977839563813E-37
-0.4523208139435E-37 -0.3976547038390E-37
-0.4437253367526E-37 -0.3983880120641E-37
-0.4350845440712E-37 -0.3998775007108E-37
-0.4264024569351E-37 -0.4020359875470E-37
-0.4176819810152E-37 -0.4047913822242E-37
-0.4089252297885E-37 -0.4080835782705E-37
-0.4001343341668E-37 -0.4118624604734E-37
-0.3913135075485E-37 -0.4161756527784E-37
-0.3824597686909E-37 -0.4208916769801E-37
-0.3735728315991E-37 -0.4259797830069E-37
-0.3646528242456E-37 -0.4314132541759E-37
-0.3556996190444E-37 -0.4371689686196E-37
-0.3467128356051E-37 -0.4432267656797E-37
-0.3376918521584E-37 -0.4495690719897E-37
-0.3286358119115E-37 -0.4561804326017E-37
-0.3195436293157E-37 -0.4630472271864E-37
-0.3104139948020E-37 -0.4701574234557E-37
-0.3012453778139E-37 -0.4775003140690E-37
-0.2920360299711E-37 -0.4850663979874E-37
-0.2827839872413E-37 -0.4928471866918E-37
-0.2734870717344E-37 -0.5008351061471E-37
-0.2641428933268E-37 -0.5090234059528E-37
-0.2547488508596E-37 -0.5174060612466E-37
-0.2453021326625E-37 -0.5259777414963E-37
-0.2357997170623E-37 -0.5347337434586E-37
-0.2262383717839E-37 -0.5436699731503E-37
-0.2069249035185E-37 -0.5620696820620E-37
-0.1971652496070E-37 -0.5715279096096E-37
-0.1873315970561E-37 -0.5811558873000E-37
-0.1774196254522E-37 -0.5909525300786E-37
-0.1674247809223E-37 -0.6009174293170E-37
-0.1573422663539E-37 -0.6110509146944E-37
-0.1471670301792E-37 -0.6213541058271E-37
-0.1368937506814E-37 -0.6318290139154E-37
-0.1265168185165E-37 -0.6424786278171E-37
-0.1160303140965E-37 -0.6533070392280E-37
-0.1054279797342E-37 -0.6643195960758E-37
-0.9470318817277E-38 -0.6755230532636E-37
-0.8384890042480E-38 -0.6869258059896E-37
-0.7285761925471E-38 -0.6985381175517E-37
-0.6172132989948E-38 -0.7103724276800E-37
-0.5043142816957E-38 -0.7224437260695E-37
-0.3897863766391E-38 -0.7347699756320E-37
-0.2735290223828E-38 -0.7473726917215E-37
-0.1554326611499E-38 -0.7602776148652E-37
-0.3537115603738E-39 -0.7735152158792E-37
 0.8675731102370E-39 -0.7871107460169E-37
 0.2111370546986E-38 -0.8011255848312E-37
 0.3379213482800E-38 -0.8156130016678E-37
 0.4672973232516E-38 -0.8306387716495E-37
 0.5994786198408E-38 -0.8462837500681E-37
 0.7347113787479E-38 -0.8626482811527E-37
 0.8732821094354E-38 -0.8798583541179E-37
 0.1015527962696E-37 -0.8980743696355E-37
 0.1161850197012E-37 -0.9175039371031E-37
 0.1312731681713E-37 -0.9384210982909E-37
 0.1468758913223E-37 -0.9611961945226E-37
 0.1630646784727E-37 -0.9863441634974E-37
 0.1799255569198E-37 -0.1014606540219E-36
 0.1975557453403E-37 -0.1047099458367E-36
 0.2160389617433E-37 -0.1085602904788E-36
 0.2353345949982E-37 -0.1133190525821E-36
 0.2547946709401E-37 -0.1195827220568E-36
 0.2708114741668E-37 -0.1287428614011E-36
 0.2626736462654E-37 -0.1451823546702E-36
-0.1198686684855E-01 -0.2834777120211E-01
-0.1136746951526E-01 -0.2653375205585E-01
-0.1085022485612E-01 -0.2524463941796E-01
-0.1040275508490E-01 -0.2424235741706E-01
-0.1000246313985E-01 -0.2342272051920E-01
-0.9634552787625E-02 -0.2273082927000E-01
-0.9289260102780E-02 -0.2213445538195E-01
-0.8960159596382E-02 -0.2161302399032E-01
-0.8642968025947E-02 -0.2115249798198E-01
-0.8334768526607E-02 -0.2074277477283E-01
-0.8033521226115E-02 -0.2037626581726E-01
-0.7737758868444E-02 -0.2004707308492E-01
-0.7446398047032E-02 -0.1975048591320E-01
-0.7158621386159E-02 -0.1948265828956E-01
-0.6873803975931E-02 -0.1924039292077E-01
-0.6591468577954E-02 -0.1902099078579E-01
-0.6311260513383E-02 -0.1882214030977E-01
-0.6032940149597E-02 -0.1864182807368E-01
-0.5756393506022E-02 -0.1847824340866E-01
-0.5209656783314E-02 -0.1819625887504E-01
-0.4936961142538E-02 -0.1807531262484E-01
-0.4664050758637E-02 -0.1796571412683E-01
-0.4391008187141E-02 -0.1786660355273E-01
-0.4117854257461E-02 -0.1777715491615E-01
-0.3844576331730E-02 -0.1769661309739E-01
-0.3571152260717E-02 -0.1762429461964E-01
-0.3297558046351E-02 -0.1755958387356E-01
-0.3023773363141E-02 -0.1750192844990E-01
-0.2749784165731E-02 -0.1745083448503E-01
-0.2475582476796E-02 -0.1740586225758E-01
-0.2201167895903E-02 -0.1736662286656E-01
-0.1926546206805E-02 -0.1733277503326E-01
-0.1651729354389E-02 -0.1730402269479E-01
-0.1376734967644E-02 -0.1728011295972E-01
-0.1101585068872E-02 -0.1726083438217E-01
-0.8263060678067E-03 -0.1724601568848E-01
-0.5509273492581E-03 -0.1723552468168E-01
-0.2754807991339E-03 -0.1722926748080E-01
 0.5827753557508E-10 -0.1722718797109E-01
 0.2754809156850E-03 -0.1722926748257E-01
 0.5509274657976E-03 -0.1723552468522E-01
 0.8263061843272E-03 -0.1724601569383E-01
 0.1101585185367E-02 -0.1726083438937E-01
 0.1376735084108E-02 -0.1728011296883E-01
 0.1651729470819E-02 -0.1730402270589E-01
 0.1926546323199E-02 -0.1733277504643E-01
 0.2201168012261E-02 -0.1736662288192E-01
 0.2475582593121E-02 -0.1740586227524E-01
 0.2749784282028E-02 -0.1745083450514E-01
 0.3023773479420E-02 -0.1750192847261E-01
 0.3297558162624E-02 -0.1755958389905E-01
 0.3571152377002E-02 -0.1762429464813E-01
 0.3844576448046E-02 -0.1769661312909E-01
 0.4117854373835E-02 -0.1777715495132E-01
 0.4391008303602E-02 -0.1786660359165E-01
 0.4664050875219E-02 -0.1796571416982E-01
 0.4936961259278E-02 -0.1807531267225E-01
 0.5209656900249E-02 -0.1819625892727E-01
 0.5756393618244E-02 -0.1847824346900E-01
 0.6032940256894E-02 -0.1864182813675E-01
 0.6311260615786E-02 -0.1882214037549E-01
 0.6591468675501E-02 -0.1902099085405E-01
 0.6873804068662E-02 -0.1924039299143E-01
 0.7158621474112E-02 -0.1948265836248E-01
 0.7446398130248E-02 -0.1975048598820E-01
 0.7737758946959E-02 -0.2004707316177E-01
 0.8033521299968E-02 -0.2037626589569E-01
 0.8334768595836E-02 -0.2074277485252E-01
 0.8642968090593E-02 -0.2115249806256E-01
 0.8960159656492E-02 -0.2161302407133E-01
 0.9289260158405E-02 -0.2213445546285E-01
 0.9634552838813E-02 -0.2273082935016E-01
 0.1000246318662E-01 -0.2342272059784E-01
 0.1040275512715E-01 -0.2424235749319E-01
 0.1085022489351E-01 -0.2524463949014E-01
 0.1136746954691E-01 -0.2653375212155E-01
 0.1198686687328E-01 -0.2834777125484E-01
-0.1516926636528E+00 -0.1161646847419E+00
-0.2292742191181E+00 -0.1801908390679E+00
-0.2896994138014E+00 -0.2246657021088E+00
-0.3377616328765E+00 -0.2594382337384E+00
-0.3767324555984E+00 -0.2873075762266E+00
-0.4085214582559E+00 -0.3086938884516E+00
-0.4340270117485E+00 -0.3222984920502E+00
-0.4534034173295E+00 -0.3290503994375E+00
-0.4667395763155E+00 -0.3306396672484E+00
-0.4741384022064E+00 -0.3283046660934E+00
-0.4756455689300E+00 -0.3229573442257E+00
-0.4712758157759E+00 -0.3154082718073E+00
-0.4610732267680E+00 -0.3064641002727E+00
-0.4451235113757E+00 -0.2969923356576E+00
-0.4236337281548E+00 -0.2879983050718E+00
-0.3970502961079E+00 -0.2805419514534E+00
-0.3658842049646E+00 -0.2754022974892E+00
-0.3317416305275E+00 -0.2772213303201E+00
-0.2988953782590E+00 -0.2902217576779E+00
-0.2598349674767E+00 -0.3341639348774E+00
-0.2496398190499E+00 -0.3565410133966E+00
-0.2411313672232E+00 -0.3811512709175E+00
-0.2347122339292E+00 -0.4084119129711E+00
-0.2307604217632E+00 -0.4389429465620E+00
-0.2290917038811E+00 -0.4737624599802E+00
-0.2292821448981E+00 -0.5147051898174E+00
-0.2296467481404E+00 -0.5639347011811E+00
-0.2285687643293E+00 -0.6199975824536E+00
-0.2250367346599E+00 -0.6789706736404E+00
-0.2176515908552E+00 -0.7385695018023E+00
-0.2058655581823E+00 -0.7968534371229E+00
-0.1898978928823E+00 -0.8519387785711E+00
-0.1701844762441E+00 -0.9022455971662E+00
-0.1471926723828E+00 -0.9465307010426E+00
-0.1213894365165E+00 -0.9838466699171E+00
-0.9324910790543E-01 -0.1013492211606E+01
-0.6326786384413E-01 -0.1034971221975E+01
-0.3198232921677E-01 -0.1047962575902E+01
-0.6137370611725E-09 -0.1052302401967E+01
 0.3198232800689E-01 -0.1047962576342E+01
 0.6326786268333E-01 -0.1034971222852E+01
 0.9324910682102E-01 -0.1013492212907E+01
 0.1213894355345E+00 -0.9838466716207E+00
 0.1471926715240E+00 -0.9465307031210E+00
 0.1701844755323E+00 -0.9022455995753E+00
 0.1898978923376E+00 -0.8519387812593E+00
 0.2058655578288E+00 -0.7968534400116E+00
 0.2176515907096E+00 -0.7385695048070E+00
 0.2250367347205E+00 -0.6789706766614E+00
 0.2285687645435E+00 -0.6199975853919E+00
 0.2296467484484E+00 -0.5639347038874E+00
 0.2292821452482E+00 -0.5147051921312E+00
 0.2290917041834E+00 -0.4737624619342E+00
 0.2307604219575E+00 -0.4389429482875E+00
 0.2347122340134E+00 -0.4084119145311E+00
 0.2411313671947E+00 -0.3811512723485E+00
 0.2496398189168E+00 -0.3565410147196E+00
 0.2598349672305E+00 -0.3341639361007E+00
 0.2988953776625E+00 -0.2902217584632E+00
 0.3317416298488E+00 -0.2772213307373E+00
 0.3658842043593E+00 -0.2754022976330E+00
 0.3970502956433E+00 -0.2805419515125E+00
 0.4236337278328E+00 -0.2879983050962E+00
 0.4451235111925E+00 -0.2969923356701E+00
 0.4610732267144E+00 -0.3064641002958E+00
 0.4712758158372E+00 -0.3154082718557E+00
 0.4756455690907E+00 -0.3229573443092E+00
 0.4741384024504E+00 -0.3283046662190E+00
 0.4667395766270E+00 -0.3306396674207E+00
 0.4534034176922E+00 -0.3290503996612E+00
 0.4340270121457E+00 -0.3222984923307E+00
 0.4085214586657E+00 -0.3086938887881E+00
 0.3767324560016E+00 -0.2873075765864E+00
 0.3377616332622E+00 -0.2594382340809E+00
 0.2896994141597E+00 -0.2246657024147E+00
 0.2292742194294E+00 -0.1801908393305E+00
 0.1516926638759E+00 -0.1161646849527E+00
-0.3989407998698E-03 -0.7008750014543E-03
-0.6480601602526E-03 -0.1203752790894E-02
-0.8408336030997E-03 -0.1673168153721E-02
-0.9932856213085E-03 -0.2123193597534E-02
-0.1116302698917E-02 -0.2563128781433E-02
-0.1215543983083E-02 -0.2997809228154E-02
-0.1295184574987E-02 -0.3430172190376E-02
-0.1358207466517E-02 -0.3862199764560E-02
-0.1406934361919E-02 -0.4295312648338E-02
-0.1443213862632E-02 -0.4730603853430E-02
-0.1468566277712E-02 -0.5168970294473E-02
-0.1484271964802E-02 -0.5611198778443E-02
-0.1491436491156E-02 -0.6058026854389E-02
-0.1491040012808E-02 -0.6510187187416E-02
-0.1483978102477E-02 -0.6968443446787E-02
-0.1471097580754E-02 -0.7433622592901E-02
-0.1453229607201E-02 -0.7906649411336E-02
-0.1431223155887E-02 -0.8388553814998E-02
-0.1405975971449E-02 -0.8880544432545E-02
-0.1378470320957E-02 -0.9384006912800E-02
-0.1349807623541E-02 -0.9900579309514E-02
-0.1321244193296E-02 -0.1043223663828E-01
-0.1294240763533E-02 -0.1098151226630E-01
-0.1270763565925E-02 -0.1155194292679E-01
-0.1253808503776E-02 -0.1214748273724E-01
-0.1247298062449E-02 -0.1277142817950E-01
-0.1255759887699E-02 -0.1342635662879E-01
-0.1284204955692E-02 -0.1411455665426E-01
-0.1338216559829E-02 -0.1483852368009E-01
-0.1424199073886E-02 -0.1560135426480E-01
-0.1549740858866E-02 -0.1640702088517E-01
-0.1724127883294E-02 -0.1726053942620E-01
-0.1958864972911E-02 -0.1816762484677E-01
-0.2267803963117E-02 -0.1913478718194E-01
-0.2668285436675E-02 -0.2017190727254E-01
-0.3183651603413E-02 -0.2129534120581E-01
-0.3850689433405E-02 -0.2253219801683E-01
-0.4720119526711E-02 -0.2392904269691E-01
-0.5938254208456E-02 -0.2557498936877E-01
-0.7535926327512E-02 -0.2778775398299E-01
 0.7535926335496E-02 -0.2778775398922E-01
 0.5938254218559E-02 -0.2557498937496E-01
 0.4720119536237E-02 -0.2392904270361E-01
 0.3850689442553E-02 -0.2253219802340E-01
 0.3183651612137E-02 -0.2129534121228E-01
 0.2668285444977E-02 -0.2017190727886E-01
 0.2267803970999E-02 -0.1913478718810E-01
 0.1958864980377E-02 -0.1816762485277E-01
 0.1724127890353E-02 -0.1726053943200E-01
 0.1549740865536E-02 -0.1640702089078E-01
 0.1424199080183E-02 -0.1560135427022E-01
 0.1338216565767E-02 -0.1483852368533E-01
 0.1284204961282E-02 -0.1411455665932E-01
 0.1255759892952E-02 -0.1342635663368E-01
 0.1247298067375E-02 -0.1277142818422E-01
 0.1253808508383E-02 -0.1214748274180E-01
 0.1270763570224E-02 -0.1155194293119E-01
 0.1294240767534E-02 -0.1098151227054E-01
 0.1321244197009E-02 -0.1043223664235E-01
 0.1349807626977E-02 -0.9900579313421E-02
 0.1378470324126E-02 -0.9384006916538E-02
 0.1405975974363E-02 -0.8880544436113E-02
 0.1431223158556E-02 -0.8388553818394E-02
 0.1453229609638E-02 -0.7906649414560E-02
 0.1471097582968E-02 -0.7433622595950E-02
 0.1483978104480E-02 -0.6968443449660E-02
 0.1491040014613E-02 -0.6510187190113E-02
 0.1491436492772E-02 -0.6058026856907E-02
 0.1484271966241E-02 -0.5611198780781E-02
 0.1468566278986E-02 -0.5168970296630E-02
 0.1443213863752E-02 -0.4730603855405E-02
 0.1406934362895E-02 -0.4295312650129E-02
 0.1358207467361E-02 -0.3862199766166E-02
 0.1295184575709E-02 -0.3430172191796E-02
 0.1215543983693E-02 -0.2997809229388E-02
 0.1116302699424E-02 -0.2563128782479E-02
 0.9932856217199E-03 -0.2123193598390E-02
 0.8408336034209E-03 -0.1673168154385E-02
 0.6480601604868E-03 -0.1203752791362E-02
 0.3989408000047E-03 -0.7008750017197E-03
-0.3042936767202E+00 -0.4747145877655E+00
-0.2922519618517E+00 -0.4854258441877E+00
-0.2797052855954E+00 -0.4960965664097E+00
-0.2666345852349E+00 -0.5066532125413E+00
-0.2530356512053E+00 -0.5170220540901E+00
-0.2389132729574E+00 -0.5271304594672E+00
-0.2242787710039E+00 -0.5369076457193E+00
-0.2091487451899E+00 -0.5462847088153E+00
-0.1935444449012E+00 -0.5551948910732E+00
-0.1774911413982E+00 -0.5635741031996E+00
-0.1610177016170E+00 -0.5713613260027E+00
-0.1441562342226E+00 -0.5784989620950E+00
-0.1269417974230E+00 -0.5849332966198E+00
-0.1094121435601E+00 -0.5906151587798E+00
-0.9160748166441E-01 -0.5955005855788E+00
-0.7357018778257E-01 -0.5995514193445E+00
-0.5534449975060E-01 -0.6027358007286E+00
-0.3697617337911E-01 -0.6050285652681E+00
-0.1851211514369E-01 -0.6064115416619E+00
 0.8086514791117E-10 -0.6068737558628E+00
 0.1851211530548E-01 -0.6064115416672E+00
 0.3697617354110E-01 -0.6050285652785E+00
 0.5534449991292E-01 -0.6027358007443E+00
 0.7357018794533E-01 -0.5995514193656E+00
 0.9160748182775E-01 -0.5955005856052E+00
 0.1094121437241E+00 -0.5906151588116E+00
 0.1269417975878E+00 -0.5849332966571E+00
 0.1441562343884E+00 -0.5784989621379E+00
 0.1610177017838E+00 -0.5713613260513E+00
 0.1774911415661E+00 -0.5635741032540E+00
 0.1935444450704E+00 -0.5551948911334E+00
 0.2091487453604E+00 -0.5462847088814E+00
 0.2242787711758E+00 -0.5369076457915E+00
 0.2389132731306E+00 -0.5271304595453E+00
 0.2530356513799E+00 -0.5170220541741E+00
 0.2666345854108E+00 -0.5066532126310E+00
 0.2797052857723E+00 -0.4960965665046E+00
 0.2922519620293E+00 -0.4854258442873E+00
 0.3042936768982E+00 -0.4747145878692E+00
-0.3127357966324E+00 -0.4368342990195E+00
-0.3086192905168E+00 -0.4096470715490E+00
-0.3034842241651E+00 -0.3823685881522E+00
-0.2972673734631E+00 -0.3550676940920E+00
-0.2899265763377E+00 -0.3278426455765E+00
-0.2814289257734E+00 -0.3007911573841E+00
-0.2717174844510E+00 -0.2740116606935E+00
-0.2607298048612E+00 -0.2476072695736E+00
-0.2484091225758E+00 -0.2216905887431E+00
-0.2347086047453E+00 -0.1963902534975E+00
-0.2195850778932E+00 -0.1718567278369E+00
-0.2029838515236E+00 -0.1482643286479E+00
-0.1848260689229E+00 -0.1258089986144E+00
-0.1650113511308E+00 -0.1047037265335E+00
-0.1434318366618E+00 -0.8517352644492E-01
-0.1199825169616E+00 -0.6744609550178E-01
-0.9456230375933E-01 -0.5173554336835E-01
-0.6707310131237E-01 -0.3823051022806E-01
-0.3741694033501E-01 -0.2707587126824E-01
 0.3127357967949E+00 -0.4368342991065E+00
 0.3086192906679E+00 -0.4096470716158E+00
 0.3034842243094E+00 -0.3823685881981E+00
 0.2972673736056E+00 -0.3550676941157E+00
 0.2899265764854E+00 -0.3278426455767E+00
 0.2814289259381E+00 -0.3007911573600E+00
 0.2717174846507E+00 -0.2740116606451E+00
 0.2607298051212E+00 -0.2476072695030E+00
 0.2484091229280E+00 -0.2216905886549E+00
 0.2347086052235E+00 -0.1963902534001E+00
 0.2195850785256E+00 -0.1718567277419E+00
 0.2029838523231E+00 -0.1482643285689E+00
 0.1848260698806E+00 -0.1258089985641E+00
 0.1650113522138E+00 -0.1047037265208E+00
 0.1434318378140E+00 -0.8517352647303E-01
 0.1199825181069E+00 -0.6744609556753E-01
 0.9456230480541E-01 -0.5173554346254E-01
 0.6707310215520E-01 -0.3823051033541E-01
 0.3741694086603E-01 -0.2707587136673E-01
-0.3345017053193E+00 -0.4720368802188E+00
-0.3513471681705E+00 -0.4776245586684E+00
-0.3661307278968E+00 -0.4807936178480E+00
-0.3786441451321E+00 -0.4815574371781E+00
-0.3887091028211E+00 -0.4799572196106E+00
-0.3961772207393E+00 -0.4760809128926E+00
-0.4009373972231E+00 -0.4700669250634E+00
-0.4029251095790E+00 -0.4621047984640E+00
-0.4021313628167E+00 -0.4524322725936E+00
-0.3986107086885E+00 -0.4413290810682E+00
-0.3924877079364E+00 -0.4291072955883E+00
-0.3839609949186E+00 -0.4160980490755E+00
-0.3733037919192E+00 -0.4026345457414E+00
-0.3608593815960E+00 -0.3890314765069E+00
-0.3470297458567E+00 -0.3755613986570E+00
-0.3322554724835E+00 -0.3624295233446E+00
-0.3169860906355E+00 -0.3497503767227E+00
-0.3016424713734E+00 -0.3375323424097E+00
-0.2865829393681E+00 -0.3256808787615E+00
 0.3345017054557E+00 -0.4720368804117E+00
 0.3513471682709E+00 -0.4776245589478E+00
 0.3661307279667E+00 -0.4807936182128E+00
 0.3786441451769E+00 -0.4815574376259E+00
 0.3887091028456E+00 -0.4799572201374E+00
 0.3961772207474E+00 -0.4760809134928E+00
 0.4009373972174E+00 -0.4700669257302E+00
 0.4029251095605E+00 -0.4621047991896E+00
 0.4021313627846E+00 -0.4524322733695E+00
 0.3986107086400E+00 -0.4413290818856E+00
 0.3924877078671E+00 -0.4291072964388E+00
 0.3839609948226E+00 -0.4160980499516E+00
 0.3733037917897E+00 -0.4026345466374E+00
 0.3608593814265E+00 -0.3890314774195E+00
 0.3470297456424E+00 -0.3755613995858E+00
 0.3322554722220E+00 -0.3624295242928E+00
 0.3169860903284E+00 -0.3497503776966E+00
 0.3016424710269E+00 -0.3375323434184E+00
 0.2865829389918E+00 -0.3256808798158E+00
-0.3354036170584E-03 -0.5877131777505E-03
-0.6035081788212E-03 -0.1129259489047E-02
-0.7964610549033E-03 -0.1612435662150E-02
-0.9508644768892E-03 -0.2074951117963E-02
-0.1074538421901E-02 -0.2524893313137E-02
-0.1174175532800E-02 -0.2968043110618E-02
-0.1253911875766E-02 -0.3407706947857E-02
-0.1316848039509E-02 -0.3846132600714E-02
-0.1365342863923E-02 -0.4284921478036E-02
-0.1401276485990E-02 -0.4725296653076E-02
-0.1426186911294E-02 -0.5168250906249E-02
-0.1441365538578E-02 -0.5614642490997E-02
-0.1447923591704E-02 -0.6065261860889E-02
-0.1446843034955E-02 -0.6520879562004E-02
-0.1439018212822E-02 -0.6982284187024E-02
-0.1425292256070E-02 -0.7450315779784E-02
-0.1406490542979E-02 -0.7925900783909E-02
-0.1383454315775E-02 -0.8410059233403E-02
-0.1357071534484E-02 -0.8903977878955E-02
-0.1328312075453E-02 -0.9409007250987E-02
-0.1298260909584E-02 -0.9926734556729E-02
-0.1268149076301E-02 -0.1045906549712E-01
-0.1239406510119E-02 -0.1100836275295E-01
-0.1213994459188E-02 -0.1157748317796E-01
-0.1194961546317E-02 -0.1216944119460E-01
-0.1186326618169E-02 -0.1278697356183E-01
-0.1192715049705E-02 -0.1343243693592E-01
-0.1219218511774E-02 -0.1410801276937E-01
-0.1271486487690E-02 -0.1481600152619E-01
-0.1355991530501E-02 -0.1555907609542E-01
-0.1480417219302E-02 -0.1634047128950E-01
-0.1654203255722E-02 -0.1716406898045E-01
-0.1889005167770E-02 -0.1803454176447E-01
-0.2198781375784E-02 -0.1895758379858E-01