<?xml version="1.0"?>
<VTKFile type="PolyData" version="0.1" byte_order="LittleEndian" header_type="UInt32" compressor="vtkZLibDataCompressor">
  <PolyData>
    <Piece NumberOfPoints="20" NumberOfVerts="0" NumberOfLines="0" NumberOfStrips="0" NumberOfPolys="0">
      <PointData Normals="Load Orientation">
        <DataArray type="Float64" Name="Load Orientation" NumberOfComponents="3" format="ascii" RangeMin="0.9999999999999998" RangeMax="1">
          0.9608542808526459 0.27705423831290654 0 0.9299971499733235 0.36756673005251145 0
          0.8239327588502865 0.5666875760887613 0 0.40198884057683204 0.9156445664403269 0
          0.37360527393948345 0.9275877852174442 0 0.7809764223494958 0.6245605076645351 0
          0.3093292930499478 -0.9509549876104649 0 -0.3620111788510092 -0.9321737533244018 0
          -0.3579711827203936 -0.9337326342919382 0 -0.12045856746912798 -0.9927183555889785 0
          0.12045856738532236 -0.9927183555991476 0 0.357971182668349 -0.9337326343118908 0
          0.36201117884315265 -0.9321737533274528 0 -0.30932929299621537 -0.9509549876279431 0
          -0.7809764222808142 0.6245605077504174 0 -0.3736052738618594 0.927587785248709 0
          -0.4019888409831588 0.9156445662619401 0 -0.8239327591061305 0.5666875757167781 0
          -0.9299971498857943 0.36756673027397274 0 -0.9608542806899202 0.27705423887725666 0
          <InformationKey name="L2_NORM_RANGE" location="vtkDataArray" length="2">
            <Value index="0">
              1
            </Value>
            <Value index="1">
              1
            </Value>
          </InformationKey>
        </DataArray>
        <DataArray type="Float64" Name="Load Magnitude" format="ascii" RangeMin="0" RangeMax="5.490753505825623">
          0 0 0 0 0 0
          0 0 0.4279311688596575 5.490753505825623 5.490753505263514 0.4279311684784507
          0 0 0 0 0 0
          0 0
        </DataArray>
      </PointData>
      <CellData>
      </CellData>
      <Points>
        <DataArray type="Float32" Name="Points" NumberOfComponents="3" format="ascii" RangeMin="0.4770010314653643" RangeMax="2.099673468329374">
          -1.2147762 -1.2024028 0 -1.2903984 -0.9805734 0
          -1.3996143 -0.7753831 0 -1.5722182 -0.6325148 0
          -1.7874789 -0.54195327 0 -2.0829196 -0.26471612 0
          -2.0284882 0.04714398 0 -1.4957523 0.012319674 0
          -0.912266 -0.21282616 0 -0.31020266 -0.36235934 0
          0.31020266 -0.36235934 0 0.912266 -0.21282616 0
          1.4957523 0.012319674 0 2.0284882 0.04714398 0
          2.0829196 -0.26471612 0 1.7874789 -0.54195327 0
          1.5722182 -0.6325148 0 1.3996143 -0.7753831 0
          1.2903984 -0.9805734 0 1.2147762 -1.2024028 0
          <InformationKey name="L2_NORM_RANGE" location="vtkDataArray" length="2">
            <Value index="0">
              0.47700103147
            </Value>
            <Value index="1">
              2.0996734683
            </Value>
          </InformationKey>
        </DataArray>
      </Points>
      <Verts>
        <DataArray type="Int64" Name="connectivity" format="ascii" RangeMin="1e+299" RangeMax="-1e+299">
        </DataArray>
        <DataArray type="Int64" Name="offsets" format="ascii" RangeMin="1e+299" RangeMax="-1e+299">
        </DataArray>
      </Verts>
      <Lines>
        <DataArray type="Int64" Name="connectivity" format="ascii" RangeMin="1e+299" RangeMax="-1e+299">
        </DataArray>
        <DataArray type="Int64" Name="offsets" format="ascii" RangeMin="1e+299" RangeMax="-1e+299">
        </DataArray>
      </Lines>
      <Strips>
        <DataArray type="Int64" Name="connectivity" format="ascii" RangeMin="1e+299" RangeMax="-1e+299">
        </DataArray>
        <DataArray type="Int64" Name="offsets" format="ascii" RangeMin="1e+299" RangeMax="-1e+299">
        </DataArray>
      </Strips>
      <Polys>
        <DataArray type="Int64" Name="connectivity" format="ascii" RangeMin="1e+299" RangeMax="-1e+299">
        </DataArray>
        <DataArray type="Int64" Name="offsets" format="ascii" RangeMin="1e+299" RangeMax="-1e+299">
        </DataArray>
      </Polys>
    </Piece>
  </PolyData>
</VTKFile>
