<VTKFile type="UnstructuredGrid" version="1,0" byte_order="LittleEndian">
<UnstructuredGrid>
<Piece NumberOfPoints="5802" NumberOfCells="5680">
<Points>
<DataArray type="Float64" NumberOfComponents="3" format="ascii">
-0.1100000000000E+01 -0.4260376958938E+01  0.0000000000000E+00
 0.0000000000000E+00 -0.4260376958938E+01  0.0000000000000E+00
 0.1100000000000E+01 -0.4260376958938E+01  0.0000000000000E+00
-0.1294830748007E+01 -0.1260376958938E+01  0.0000000000000E+00
-0.6474153677980E+00 -0.1260376958938E+01  0.0000000000000E+00
 0.6474153802085E+00 -0.1260376958938E+01  0.0000000000000E+00
 0.1294830748007E+01 -0.1260376958938E+01  0.0000000000000E+00
-0.1038349899718E+01  0.8622996231128E+00  0.0000000000000E+00
 0.1038349908233E+01  0.8622996153791E+00  0.0000000000000E+00
-0.5250000000000E+00  0.3489497150362E+00  0.0000000000000E+00
 0.5250000000000E+00  0.3489497150362E+00  0.0000000000000E+00
-0.1072500000000E+01 -0.4260376958938E+01  0.0000000000000E+00
-0.1045000000000E+01 -0.4260376958938E+01  0.0000000000000E+00
-0.1017500000000E+01 -0.4260376958938E+01  0.0000000000000E+00
-0.9900000000000E+00 -0.4260376958938E+01  0.0000000000000E+00
-0.9625000000000E+00 -0.4260376958938E+01  0.0000000000000E+00
-0.9350000000000E+00 -0.4260376958938E+01  0.0000000000000E+00
-0.9075000000000E+00 -0.4260376958938E+01  0.0000000000000E+00
-0.8800000000000E+00 -0.4260376958938E+01  0.0000000000000E+00
-0.8525000000000E+00 -0.4260376958938E+01  0.0000000000000E+00
-0.8250000000000E+00 -0.4260376958938E+01  0.0000000000000E+00
-0.7975000000000E+00 -0.4260376958938E+01  0.0000000000000E+00
-0.7700000000000E+00 -0.4260376958938E+01  0.0000000000000E+00
-0.7425000000000E+00 -0.4260376958938E+01  0.0000000000000E+00
-0.7150000000000E+00 -0.4260376958938E+01  0.0000000000000E+00
-0.6875000000000E+00 -0.4260376958938E+01  0.0000000000000E+00
-0.6600000000000E+00 -0.4260376958938E+01  0.0000000000000E+00
-0.6325000000000E+00 -0.4260376958938E+01  0.0000000000000E+00
-0.6050000000000E+00 -0.4260376958938E+01  0.0000000000000E+00
-0.5775000000000E+00 -0.4260376958938E+01  0.0000000000000E+00
-0.5500000000000E+00 -0.4260376958938E+01  0.0000000000000E+00
-0.5225000000000E+00 -0.4260376958938E+01  0.0000000000000E+00
-0.4950000000000E+00 -0.4260376958938E+01  0.0000000000000E+00
-0.4675000000000E+00 -0.4260376958938E+01  0.0000000000000E+00
-0.4400000000000E+00 -0.4260376958938E+01  0.0000000000000E+00
-0.4125000000000E+00 -0.4260376958938E+01  0.0000000000000E+00
-0.3850000000000E+00 -0.4260376958938E+01  0.0000000000000E+00
-0.3575000000000E+00 -0.4260376958938E+01  0.0000000000000E+00
-0.3300000000000E+00 -0.4260376958938E+01  0.0000000000000E+00
-0.3025000000000E+00 -0.4260376958938E+01  0.0000000000000E+00
-0.2750000000000E+00 -0.4260376958938E+01  0.0000000000000E+00
-0.2475000000000E+00 -0.4260376958938E+01  0.0000000000000E+00
-0.2200000000000E+00 -0.4260376958938E+01  0.0000000000000E+00
-0.1925000000000E+00 -0.4260376958938E+01  0.0000000000000E+00
-0.1650000000000E+00 -0.4260376958938E+01  0.0000000000000E+00
-0.1375000000000E+00 -0.4260376958938E+01  0.0000000000000E+00
-0.1100000000000E+00 -0.4260376958938E+01  0.0000000000000E+00
-0.8250000000000E-01 -0.4260376958938E+01  0.0000000000000E+00
-0.5500000000000E-01 -0.4260376958938E+01  0.0000000000000E+00
-0.2750000000000E-01 -0.4260376958938E+01  0.0000000000000E+00
 0.2750000000000E-01 -0.4260376958938E+01  0.0000000000000E+00
 0.5500000000000E-01 -0.4260376958938E+01  0.0000000000000E+00
 0.8250000000000E-01 -0.4260376958938E+01  0.0000000000000E+00
 0.1100000000000E+00 -0.4260376958938E+01  0.0000000000000E+00
 0.1375000000000E+00 -0.4260376958938E+01  0.0000000000000E+00
 0.1650000000000E+00 -0.4260376958938E+01  0.0000000000000E+00
 0.1925000000000E+00 -0.4260376958938E+01  0.0000000000000E+00
 0.2200000000000E+00 -0.4260376958938E+01  0.0000000000000E+00
 0.2475000000000E+00 -0.4260376958938E+01  0.0000000000000E+00
 0.2750000000000E+00 -0.4260376958938E+01  0.0000000000000E+00
 0.3025000000000E+00 -0.4260376958938E+01  0.0000000000000E+00
 0.3300000000000E+00 -0.4260376958938E+01  0.0000000000000E+00
 0.3575000000000E+00 -0.4260376958938E+01  0.0000000000000E+00
 0.3850000000000E+00 -0.4260376958938E+01  0.0000000000000E+00
 0.4125000000000E+00 -0.4260376958938E+01  0.0000000000000E+00
 0.4400000000000E+00 -0.4260376958938E+01  0.0000000000000E+00
 0.4675000000000E+00 -0.4260376958938E+01  0.0000000000000E+00
 0.4950000000000E+00 -0.4260376958938E+01  0.0000000000000E+00
 0.5225000000000E+00 -0.4260376958938E+01  0.0000000000000E+00
 0.5500000000000E+00 -0.4260376958938E+01  0.0000000000000E+00
 0.5775000000000E+00 -0.4260376958938E+01  0.0000000000000E+00
 0.6050000000000E+00 -0.4260376958938E+01  0.0000000000000E+00
 0.6325000000000E+00 -0.4260376958938E+01  0.0000000000000E+00
 0.6600000000000E+00 -0.4260376958938E+01  0.0000000000000E+00
 0.6875000000000E+00 -0.4260376958938E+01  0.0000000000000E+00
 0.7150000000000E+00 -0.4260376958938E+01  0.0000000000000E+00
 0.7425000000000E+00 -0.4260376958938E+01  0.0000000000000E+00
 0.7700000000000E+00 -0.4260376958938E+01  0.0000000000000E+00
 0.7975000000000E+00 -0.4260376958938E+01  0.0000000000000E+00
 0.8250000000000E+00 -0.4260376958938E+01  0.0000000000000E+00
 0.8525000000000E+00 -0.4260376958938E+01  0.0000000000000E+00
 0.8800000000000E+00 -0.4260376958938E+01  0.0000000000000E+00
 0.9075000000000E+00 -0.4260376958938E+01  0.0000000000000E+00
 0.9350000000000E+00 -0.4260376958938E+01  0.0000000000000E+00
 0.9625000000000E+00 -0.4260376958938E+01  0.0000000000000E+00
 0.9900000000000E+00 -0.4260376958938E+01  0.0000000000000E+00
 0.1017500000000E+01 -0.4260376958938E+01  0.0000000000000E+00
 0.1045000000000E+01 -0.4260376958938E+01  0.0000000000000E+00
 0.1072500000000E+01 -0.4260376958938E+01  0.0000000000000E+00
-0.1262459978996E+01 -0.1260376958938E+01  0.0000000000000E+00
-0.1230089209986E+01 -0.1260376958938E+01  0.0000000000000E+00
-0.1197718440975E+01 -0.1260376958938E+01  0.0000000000000E+00
-0.1165347671965E+01 -0.1260376958938E+01  0.0000000000000E+00
-0.1132976902954E+01 -0.1260376958938E+01  0.0000000000000E+00
-0.1100606133944E+01 -0.1260376958938E+01  0.0000000000000E+00
-0.1068235364934E+01 -0.1260376958938E+01  0.0000000000000E+00
-0.1035864595923E+01 -0.1260376958938E+01  0.0000000000000E+00
-0.1003493826913E+01 -0.1260376958938E+01  0.0000000000000E+00
-0.9711230579023E+00 -0.1260376958938E+01  0.0000000000000E+00
-0.9387522888919E+00 -0.1260376958938E+01  0.0000000000000E+00
-0.9063815198814E+00 -0.1260376958938E+01  0.0000000000000E+00
-0.8740107508710E+00 -0.1260376958938E+01  0.0000000000000E+00
-0.8416399818606E+00 -0.1260376958938E+01  0.0000000000000E+00
-0.8092692128501E+00 -0.1260376958938E+01  0.0000000000000E+00
-0.7768984438397E+00 -0.1260376958938E+01  0.0000000000000E+00
-0.7445276748293E+00 -0.1260376958938E+01  0.0000000000000E+00
-0.7121569058189E+00 -0.1260376958938E+01  0.0000000000000E+00
-0.6797861368084E+00 -0.1260376958938E+01  0.0000000000000E+00
-0.6150445990978E+00 -0.1260376958938E+01  0.0000000000000E+00
-0.5826738303977E+00 -0.1260376958938E+01  0.0000000000000E+00
-0.5503030616975E+00 -0.1260376958938E+01  0.0000000000000E+00
-0.5179322929974E+00 -0.1260376958938E+01  0.0000000000000E+00
-0.4855615242972E+00 -0.1260376958938E+01  0.0000000000000E+00
-0.4531907555970E+00 -0.1260376958938E+01  0.0000000000000E+00
-0.4208199868969E+00 -0.1260376958938E+01  0.0000000000000E+00
-0.3884492181967E+00 -0.1260376958938E+01  0.0000000000000E+00
-0.3560784494965E+00 -0.1260376958938E+01  0.0000000000000E+00
-0.3237076807964E+00 -0.1260376958938E+01  0.0000000000000E+00
-0.2913369120962E+00 -0.1260376958938E+01  0.0000000000000E+00
-0.2589661433960E+00 -0.1260376958938E+01  0.0000000000000E+00
-0.2265953746959E+00 -0.1260376958938E+01  0.0000000000000E+00
-0.1942246059957E+00 -0.1260376958938E+01  0.0000000000000E+00
-0.1618538372956E+00 -0.1260376958938E+01  0.0000000000000E+00
-0.1294830685954E+00 -0.1260376958938E+01  0.0000000000000E+00
-0.9711229989523E-01 -0.1260376958938E+01  0.0000000000000E+00
-0.6474153119507E-01 -0.1260376958938E+01  0.0000000000000E+00
-0.3237076249490E-01 -0.1260376958938E+01  0.0000000000000E+00
 0.6205262220726E-08 -0.1260376958938E+01  0.0000000000000E+00
 0.3237077490543E-01 -0.1260376958938E+01  0.0000000000000E+00
 0.6474154360559E-01 -0.1260376958938E+01  0.0000000000000E+00
 0.9711231230575E-01 -0.1260376958938E+01  0.0000000000000E+00
 0.1294830810059E+00 -0.1260376958938E+01  0.0000000000000E+00
 0.1618538497061E+00 -0.1260376958938E+01  0.0000000000000E+00
 0.1942246184062E+00 -0.1260376958938E+01  0.0000000000000E+00
 0.2265953871064E+00 -0.1260376958938E+01  0.0000000000000E+00
 0.2589661558066E+00 -0.1260376958938E+01  0.0000000000000E+00
 0.2913369245067E+00 -0.1260376958938E+01  0.0000000000000E+00
 0.3237076932069E+00 -0.1260376958938E+01  0.0000000000000E+00
 0.3560784619071E+00 -0.1260376958938E+01  0.0000000000000E+00
 0.3884492306072E+00 -0.1260376958938E+01  0.0000000000000E+00
 0.4208199993074E+00 -0.1260376958938E+01  0.0000000000000E+00
 0.4531907680076E+00 -0.1260376958938E+01  0.0000000000000E+00
 0.4855615367077E+00 -0.1260376958938E+01  0.0000000000000E+00
 0.5179323054079E+00 -0.1260376958938E+01  0.0000000000000E+00
 0.5503030741080E+00 -0.1260376958938E+01  0.0000000000000E+00
 0.5826738428082E+00 -0.1260376958938E+01  0.0000000000000E+00
 0.6150446115084E+00 -0.1260376958938E+01  0.0000000000000E+00
 0.6797861485984E+00 -0.1260376958938E+01  0.0000000000000E+00
 0.7121569169883E+00 -0.1260376958938E+01  0.0000000000000E+00
 0.7445276853782E+00 -0.1260376958938E+01  0.0000000000000E+00
 0.7768984537681E+00 -0.1260376958938E+01  0.0000000000000E+00
 0.8092692221580E+00 -0.1260376958938E+01  0.0000000000000E+00
 0.8416399905479E+00 -0.1260376958938E+01  0.0000000000000E+00
 0.8740107589378E+00 -0.1260376958938E+01  0.0000000000000E+00
 0.9063815273277E+00 -0.1260376958938E+01  0.0000000000000E+00
[...]
<PointData Vectors="'U'">
<DataArray type="Float64" Name="U" NumberOfComponents="2" ComponentName0="U1" ComponentName1="U2" format="ascii">
 0.1438248040619E-36  0.3588106477474E-36
 0.2193314178905E-37 -0.2403195045717E-37
 0.1652701420891E-36 -0.4118001785741E-36
 0.1155533608673E+00  0.6489278060745E-01
 0.1076745925323E+00  0.2271865498766E-01
 0.1110133728583E+00 -0.3275461448282E-01
 0.1245798676267E+00 -0.8331947706804E-01
 0.1630347648891E+01  0.7855792460693E-01
 0.1455183591617E+01 -0.2900377872076E+00
 0.1310946449902E+01  0.6216799005887E-03
 0.1219144744975E+01 -0.1225977743217E+00
 0.5611049010799E-37  0.4595380371030E-36
 0.6015258939090E-37  0.4030159391680E-36
 0.5665530121235E-37  0.3695285999085E-36
 0.5239882089204E-37  0.3450182620537E-36
 0.4852246867271E-37  0.3250675847441E-36
 0.4516694639861E-37  0.3078356511286E-36
 0.4228290061891E-37  0.2923977990613E-36
 0.3979477605870E-37  0.2782286858224E-36
 0.3763481065449E-37  0.2650032024482E-36
 0.3574799123175E-37  0.2525071025036E-36
 0.3409062752762E-37  0.2405921656371E-36
 0.3262797710854E-37  0.2291517598124E-36
 0.3133216037532E-37  0.2181066429472E-36
 0.3018054881346E-37  0.2073962832829E-36
 0.2915456319644E-37  0.1969733277746E-36
 0.2823878307908E-37  0.1867999514451E-36
 0.2742028340925E-37  0.1768453751009E-36
 0.2668813536472E-37  0.1670841331872E-36
 0.2603302637571E-37  0.1574948372704E-36
 0.2544696744056E-37  0.1480592753240E-36
 0.2492306510243E-37  0.1387617436544E-36
 0.2445534191152E-37  0.1295885432410E-36
 0.2403859366876E-37  0.1205275943505E-36
 0.2366827490287E-37  0.1115681376348E-36
 0.2334040625744E-37  0.1027004993811E-36
 0.2305149905616E-37  0.9391590498792E-37
 0.2279849347051E-37  0.8520632912647E-37
 0.2257870755981E-37  0.7656437411089E-37
 0.2238979508034E-37  0.6798317016637E-37
 0.2222971043005E-37  0.5945629283890E-37
 0.2209667945085E-37  0.5097769391804E-37
 0.2198917508297E-37  0.4254164307182E-37
 0.2190589707615E-37  0.3414267800599E-37
 0.2184575512720E-37  0.2577556141796E-37
 0.2180785494335E-37  0.1743524335976E-37
 0.2179148683525E-37  0.9116827884186E-38
 0.2179611652761E-37  0.8155430443608E-39
 0.2182137794551E-37 -0.7473286535830E-38
 0.2186706779270E-37 -0.1575426519377E-37
 0.2201971247853E-37 -0.3231087651135E-37
 0.2212704856056E-37 -0.4059557741397E-37
 0.2225557573574E-37 -0.4889061055463E-37
 0.2240587909623E-37 -0.5720058086302E-37
 0.2257870712966E-37 -0.6553016629546E-37
 0.2277497744879E-37 -0.7388414517608E-37
 0.2299578440518E-37 -0.8226742603863E-37
 0.2324240879941E-37 -0.9068508071343E-37
 0.2351632996300E-37 -0.9914238153564E-37
 0.2381924056250E-37 -0.1076448437274E-36
 0.2415306456791E-37 -0.1161982742377E-36
 0.2451997894109E-37 -0.1248088286299E-36
 0.2492243974183E-37 -0.1334830780092E-36
 0.2536321352897E-37 -0.1422280885195E-36
 0.2584541516471E-37 -0.1510515166541E-36
 0.2637255342791E-37 -0.1599617245921E-36
 0.2694858623231E-37 -0.1689679210887E-36
 0.2757798775985E-37 -0.1780803352623E-36
 0.2826583050653E-37 -0.1873104331492E-36
 0.2901788616593E-37 -0.1966711904739E-36
 0.2984075053956E-37 -0.2061774402072E-36
 0.3074199941229E-37 -0.2158463209451E-36
 0.3173038477658E-37 -0.2256978632286E-36
 0.3281608422201E-37 -0.2357557676214E-36
 0.3401102124056E-37 -0.2460484541961E-36
 0.3532928123988E-37 -0.2566105038410E-36
 0.3678765817967E-37 -0.2674846779346E-36
 0.3840638104597E-37 -0.2787248134158E-36
 0.4021008862872E-37 -0.2904000812155E-36
 0.4222914346666E-37 -0.3026014392070E-36
 0.4450138900591E-37 -0.3154517568123E-36
 0.4707440717061E-37 -0.3291223733372E-36
 0.5000803837008E-37 -0.3438615856910E-36
 0.5337568680261E-37 -0.3600468812010E-36
 0.5725805221133E-37 -0.3782889550517E-36
 0.6170295209823E-37 -0.3996631362879E-36
 0.6653443186164E-37 -0.4263093828178E-36
 0.7041571064980E-37 -0.4633559566678E-36
 0.6548132923221E-37 -0.5270916457016E-36
 0.1144833660363E+00  0.6051136165909E-01
 0.1136667329932E+00  0.5719845073025E-01
 0.1129874762496E+00  0.5439995657349E-01
 0.1124135226084E+00  0.5188896745291E-01
 0.1119161380998E+00  0.4956311759929E-01
 0.1114748674655E+00  0.4736823385243E-01
 0.1110756344316E+00  0.4527297268426E-01
 0.1107089350571E+00  0.4325777349379E-01
 0.1103683384241E+00  0.4130962575176E-01
 0.1100494474589E+00  0.3941938430107E-01
 0.1097492138830E+00  0.3758030821569E-01
 0.1094654958533E+00  0.3578722136830E-01
 0.1091967722222E+00  0.3403600610055E-01
 0.1089419558380E+00  0.3232328413357E-01
 0.1087002692676E+00  0.3064620770559E-01
 0.1084711602363E+00  0.2900231864357E-01
 0.1082542428010E+00  0.2738945137249E-01
 0.1080492574838E+00  0.2580566755074E-01
 0.1078560426570E+00  0.2424921337386E-01
 0.1075042540266E+00  0.2121201576864E-01
 0.1073461697790E+00  0.1972750462324E-01
 0.1072000857850E+00  0.1826400455472E-01
 0.1070659996045E+00  0.1682016819032E-01
 0.1069439672877E+00  0.1539467584179E-01
 0.1068340768984E+00  0.1398622731389E-01
 0.1067364330746E+00  0.1259354048828E-01
 0.1066511498223E+00  0.1121534843274E-01
 0.1065783461875E+00  0.9850396757685E-02
 0.1065181434137E+00  0.8497441150393E-02
 0.1064706628909E+00  0.7155245152719E-02
 0.1064360245860E+00  0.5822578179034E-02
 0.1064143457983E+00  0.4498213746458E-02
 0.1064057401566E+00  0.3180927881312E-02
 0.1064103168053E+00  0.1869497661212E-02
 0.1064281797467E+00  0.5626998526210E-03
 0.1064594273189E+00 -0.7406903933946E-03
 0.1065041517920E+00 -0.2041900821437E-02
 0.1065624390719E+00 -0.3342163360381E-02
 0.1066343685059E+00 -0.4642715450693E-02
 0.1067200127849E+00 -0.5944801440007E-02
 0.1068194379420E+00 -0.7249674076632E-02
 0.1069327034480E+00 -0.8558596131710E-02
 0.1070598624086E+00 -0.9872842182902E-02
 0.1072009618693E+00 -0.1119370059573E-01
 0.1073560432364E+00 -0.1252247574323E-01
 0.1075251428258E+00 -0.1386049051028E-01
 0.1077082925522E+00 -0.1520908913635E-01
 0.1079055207758E+00 -0.1656964045873E-01
 0.1081168533225E+00 -0.1794354162800E-01
 0.1083423146982E+00 -0.1933222237665E-01
 0.1085819295166E+00 -0.2073714992866E-01
 0.1088357241661E+00 -0.2215983463544E-01
 0.1091037287523E+00 -0.2360183639783E-01
 0.1093859794045E+00 -0.2506477185914E-01
 0.1096825212379E+00 -0.2655032212102E-01
 0.1099934126748E+00 -0.2806024040033E-01
 0.1103187352279E+00 -0.2959635616259E-01
 0.1106586112867E+00 -0.3116057685853E-01
 0.1113825978985E+00 -0.3438124200458E-01
 0.1117675396275E+00 -0.3604314058972E-01
 0.1121683211081E+00 -0.3774281051322E-01
 0.1125853632026E+00 -0.3948321047761E-01
 0.1130192625768E+00 -0.4126766208727E-01
 0.1134708183406E+00 -0.4309994550917E-01
 0.1139410827381E+00 -0.4498442145007E-01
 0.1144314430778E+00 -0.4692620172817E-01
 0.1149437434512E+00 -0.4893139112567E-01
 0.1154804661327E+00 -0.5100744033002E-01
 0.1160450057735E+00 -0.5316367879588E-01
 0.1166420899576E+00 -0.5541215192976E-01
 0.1172784298072E+00 -0.5776899708052E-01
 0.1179637237898E+00 -0.6025682044099E-01
 0.1187121678458E+00 -0.6290903561694E-01
 0.1195446005095E+00 -0.6577827402042E-01
 0.1204909736440E+00 -0.6895407719020E-01
 0.1215928057440E+00 -0.7260344523922E-01
 0.1228944125456E+00 -0.7709378403752E-01
 0.2113225110224E+00  0.1168405336320E+00
 0.2780396561705E+00  0.1653370997625E+00
 0.3437336324967E+00  0.2017067964006E+00
 0.4111613975272E+00  0.2311845901251E+00
 0.4814906225002E+00  0.2553299603947E+00
 0.5552622209152E+00  0.2750111264123E+00
 0.6330628279842E+00  0.2906589373540E+00
 0.7158673200932E+00  0.3026094204967E+00
 0.8055979156578E+00  0.3108472275881E+00
 0.9062932430823E+00  0.3143195203774E+00
 0.1016644454914E+01  0.3128591573055E+00
 0.1128850934786E+01  0.3081203719246E+00
 0.1236699682503E+01  0.2960094944588E+00
 0.1335325013759E+01  0.2735319101746E+00
 0.1421148780115E+01  0.2424742650619E+00
 0.1491895068749E+01  0.2059278237383E+00
 0.1547269703763E+01  0.1682226536748E+00
 0.1588156921718E+01  0.1330470846725E+00
 0.1615552721147E+01  0.1026888015789E+00
 0.1632582882753E+01  0.6998628968415E-01
 0.1632880610499E+01  0.6358391023659E-01
 0.1631482677080E+01  0.5957552026416E-01
 0.1628695537613E+01  0.5794796973304E-01
 0.1624853252102E+01  0.5861941038188E-01
 0.1620284154192E+01  0.6141599413524E-01
 0.1615291912356E+01  0.6605869394823E-01
 0.1610146573859E+01  0.7215065291157E-01
 0.1605113214191E+01  0.7918392356506E-01
 0.1600573074261E+01  0.8652402332522E-01
 0.1596893092621E+01  0.9315272049805E-01
 0.1594545012043E+01  0.9718188540459E-01
 0.1593725852814E+01  0.9725144342184E-01
 0.1593966425399E+01  0.9400848969183E-01
 0.1594688941193E+01  0.8849970772304E-01
 0.1595557220889E+01  0.8120292793660E-01
 0.1596371485231E+01  0.7242451361399E-01
 0.1596991667111E+01  0.6238218873401E-01
 0.1597303668116E+01  0.5124144613650E-01
 0.1597200821226E+01  0.3913493811257E-01
 0.1596585524132E+01  0.2617566973181E-01
 0.1595410022407E+01  0.1246675771561E-01
 0.1593640788638E+01 -0.1902722916286E-02
 0.1591242629342E+01 -0.1685396134183E-01
 0.1588176232863E+01 -0.3231412943062E-01
 0.1584396713880E+01 -0.4821368954060E-01
 0.1579854241571E+01 -0.6448232342039E-01
 0.1574496688391E+01 -0.8105024973500E-01
 0.1568280227986E+01 -0.9784758747784E-01
 0.1561193501673E+01 -0.1148140425308E+00
 0.1553307673404E+01 -0.1319240194631E+00
 0.1544856421280E+01 -0.1492304248402E+00
 0.1536137703985E+01 -0.1668318367555E+00
 0.1527036946423E+01 -0.1846662720211E+00
 0.1517339489987E+01 -0.2026169356774E+00
 0.1506868212267E+01 -0.2205648163654E+00
 0.1495495130780E+01 -0.2383953936293E+00
 0.1483131365321E+01 -0.2559977283719E+00
 0.1469712311268E+01 -0.2732608164585E+00
 0.1422222323592E+01 -0.3211091541108E+00
 0.1385146008269E+01 -0.3496208952346E+00
 0.1344610231852E+01 -0.3757033242976E+00
 0.1300655378147E+01 -0.3988539240852E+00
 0.1253034076102E+01 -0.4178936888977E+00
 0.1201713246602E+01 -0.4315601419788E+00
 0.1147101628410E+01 -0.4392498435167E+00
 0.1089620706070E+01 -0.4405502842354E+00
 0.1029838704150E+01 -0.4371030016681E+00
 0.9680835271455E+00 -0.4312318399507E+00
 0.9042435277382E+00 -0.4223661330789E+00
 0.8382728602140E+00 -0.4101394004901E+00
 0.7701026003195E+00 -0.3942273614905E+00
 0.6995825863475E+00 -0.3741449312212E+00
 0.6264302361231E+00 -0.3492239877831E+00
 0.5501080835029E+00 -0.3185859519249E+00
 0.4695260003254E+00 -0.2805577634702E+00
 0.3820594932259E+00 -0.2320419698584E+00
 0.2822370178906E+00 -0.1629820938297E+00
 0.1493918119819E-02  0.2711106052856E-02
 0.2587848045724E-02  0.4740102618964E-02
 0.3669220723432E-02  0.6658525798929E-02
 0.4792788075261E-02  0.8496463955603E-02
 0.5992345911266E-02  0.1027749487393E-01
 0.7282121136456E-02  0.1201186173843E-01
 0.8670917727256E-02  0.1370473969073E-01
 0.1016340419145E-01  0.1535893306793E-01
 0.1176206403881E-01  0.1697591880106E-01
 0.1346786724067E-01  0.1855646737934E-01
 0.1528074742932E-01  0.2010095696601E-01
 0.1719990228964E-01  0.2160961216227E-01
 0.1922396625895E-01  0.2308266219743E-01
 0.2135113376252E-01  0.2452052801883E-01
 0.2357922412320E-01  0.2592418222224E-01
 0.2590622189327E-01  0.2729672960561E-01
 0.2833207427729E-01  0.2864679005236E-01
 0.3085786692414E-01  0.2998311479791E-01
 0.3348242214390E-01  0.3130584928929E-01
 0.3620206019082E-01  0.3261187230931E-01
 0.3901190751549E-01  0.3389830157117E-01
 0.4190680551588E-01  0.3516359500523E-01
 0.4488153731796E-01  0.3640760596668E-01
 0.4793101939636E-01  0.3763154557217E-01
 0.5105039460640E-01  0.3883799358944E-01
 0.5423505562589E-01  0.4003098031252E-01
 0.5748067798324E-01  0.4121586871886E-01
 0.6078316958978E-01  0.4239737519379E-01
 0.6413891280993E-01  0.4358039626811E-01
 0.6754527210808E-01  0.4477271874503E-01
 0.7100115459868E-01  0.4598505805113E-01
 0.7450752405449E-01  0.4723149610410E-01
 0.7806838445489E-01  0.4853017116694E-01
 0.8169209957540E-01  0.4990369321736E-01
 0.8539370051703E-01  0.5137776459966E-01
 0.8919806771021E-01  0.5297349428245E-01
 0.9314928074523E-01  0.5469445171545E-01
 0.9731174341463E-01  0.5656991988060E-01
 0.1018425223355E+00  0.5867918299675E-01
 0.1068963553309E+00  0.6138488864485E-01
 0.1125199579083E+00 -0.7799827993420E-01
 0.1062149592676E+00 -0.7395577782745E-01
 0.1007797729798E+00 -0.7086091395671E-01
 0.9595671549031E-01 -0.6813933757317E-01
 0.9149346389975E-01 -0.6566365542608E-01
 0.8728839238823E-01 -0.6337775221911E-01
 0.8327176063264E-01 -0.6126820110580E-01
 0.7940046017771E-01 -0.5930675861505E-01
 0.7564554512453E-01 -0.5746069870143E-01
 0.7198821053355E-01 -0.5570135962810E-01
 0.6841640765388E-01 -0.5400570174361E-01
 0.6492281881881E-01 -0.5235571412401E-01
 0.6150340726806E-01 -0.5073749613675E-01
 0.5815661523758E-01 -0.4914068397324E-01
 0.5488254187982E-01 -0.4755843775895E-01
 0.5168216455415E-01 -0.4598447509479E-01
 0.4855708158430E-01 -0.4441181514503E-01
 0.4550965481825E-01 -0.4283480440198E-01
 0.4254291574196E-01 -0.4124943620161E-01
 0.3966045794555E-01 -0.3965332084533E-01
 0.3686627836347E-01 -0.3804571372345E-01
 0.3416451418430E-01 -0.3642761119127E-01
 0.3155910755721E-01 -0.3480178671062E-01
 0.2905271732791E-01 -0.3317167035360E-01
 0.2664518472337E-01 -0.3153744236456E-01
 0.2433389466877E-01 -0.2988958391282E-01
 0.2211785254366E-01 -0.2821765231900E-01
 0.1999852936636E-01 -0.2651704025971E-01
 0.1797763077346E-01 -0.2478583109134E-01
 0.1605643031060E-01 -0.2302285664059E-01
 0.1423569184012E-01 -0.2122723501867E-01
 0.1251551700087E-01 -0.1939812451075E-01
 0.1089513502521E-01 -0.1753451558237E-01
 0.9372550849099E-02 -0.1563492974115E-01
 0.7943984737268E-02 -0.1369702754094E-01
 0.6603090962789E-02 -0.1171685242980E-01
 0.5338709877690E-02 -0.9687565906612E-02
 0.4133384804267E-02 -0.7596222868821E-02
 0.2947204404239E-02 -0.5414048979910E-02
 0.1716083274244E-02 -0.3103372730162E-02
 0.1312523058770E+01 -0.1658409342796E-03
 0.1313799960493E+01 -0.8078898235913E-03
 0.1314739728106E+01 -0.1388313905318E-02
 0.1315345012147E+01 -0.1955252824851E-02
 0.1315627271434E+01 -0.2543659796461E-02
 0.1315601197263E+01 -0.3182307653804E-02
 0.1315282769741E+01 -0.3896063220065E-02
 0.1314688413362E+01 -0.4706846677600E-02
 0.1313834597467E+01 -0.5634130519939E-02
 0.1312737712340E+01 -0.6695327753236E-02
 0.1311413960682E+01 -0.7905588850148E-02
 0.1309879159207E+01 -0.9277806471183E-02
 0.1308148545956E+01 -0.1082275049014E-01
 0.1306236629796E+01 -0.1254921086667E-01
 0.1304157077503E+01 -0.1446414087235E-01
 0.1301922629511E+01 -0.1657280493916E-01
 0.1299545045886E+01 -0.1887892484649E-01
 0.1297035074835E+01 -0.2138482696490E-01
 0.1294402442510E+01 -0.2409159095814E-01
 0.1291655860630E+01 -0.2699920038441E-01
 0.1288803050211E+01 -0.3010668895145E-01
 0.1285850780272E+01 -0.3341223952480E-01
 0.1282804899357E+01 -0.3691330408219E-01
 0.1279670391755E+01 -0.4060673914904E-01
 0.1276451440821E+01 -0.4448892227658E-01
 0.1273151490850E+01 -0.4855585387908E-01
 0.1269773305037E+01 -0.5280324428127E-01
 0.1266319020106E+01 -0.5722659444188E-01
 0.1262790192970E+01 -0.6182127028336E-01
 0.1259187850787E+01 -0.6658257942450E-01
 0.1255512551460E+01 -0.7150588324611E-01
 0.1251764473860E+01 -0.7658679544527E-01
 0.1247943504572E+01 -0.8182131459440E-01
 0.1244049230571E+01 -0.8720550769462E-01
 0.1240080896720E+01 -0.9273584203818E-01
 0.1236037542229E+01 -0.9840955098955E-01
 0.1231918305089E+01 -0.1042254538717E+00
 0.1227723417259E+01 -0.1101855383458E+00
 0.1223457128619E+01 -0.1162993930460E+00
 0.1253207492901E+01 -0.6253572475132E-02
 0.1192040160195E+01 -0.1173286011852E-01
 0.1128101759403E+01 -0.1586234129054E-01
 0.1062049804886E+01 -0.1861495486101E-01
 0.9944882612950E+00 -0.1998554657241E-01
 0.9259926158142E+00 -0.2001303035204E-01
 0.8571158559092E+00 -0.1878346434614E-01
 0.7883781969372E+00 -0.1643838775878E-01
 0.7202407695188E+00 -0.1318044880296E-01
 0.6530859487282E+00 -0.9270394363599E-02
 0.5872263220958E+00 -0.5003074555957E-02
 0.5229357555425E+00 -0.6562807385529E-03
 0.4604935729602E+00  0.3560006452042E-02
 0.4002124256603E+00  0.7524153131885E-02
 0.3424460487342E+00  0.1118913867968E-01
 0.2875993502013E+00  0.1454512911023E-01
 0.2361403475565E+00  0.1756777162528E-01
 0.1886061243418E+00  0.2015431593829E-01
 0.1455905382274E+00  0.2204381603093E-01
 0.1173658199574E+01 -0.1228157458253E+00
 0.1126065256882E+01 -0.1225829195959E+00
 0.1076517248067E+01 -0.1217412376424E+00
 0.1025214247347E+01 -0.1202320348881E+00
 0.9723651508227E+00 -0.1180350507258E+00
 0.9181871044113E+00 -0.1151519548840E+00
 0.8628978252502E+00 -0.1115996285543E+00
 0.8066989126663E+00 -0.1073971237548E+00
 0.7497427342587E+00 -0.1025477264499E+00
 0.6921033140342E+00 -0.9703150074937E-01
 0.6337771674437E+00 -0.9082831932250E-01
 0.5747442133044E+00 -0.8396738079916E-01
 0.5150527183684E+00 -0.7657429325757E-01
 0.4548731340161E+00 -0.6888160940283E-01
 0.3945151983794E+00 -0.6120256855949E-01
 0.3344318273150E+00 -0.5388480140775E-01
 0.2752236259301E+00 -0.4725334193406E-01
 0.2176431170733E+00 -0.4154028415517E-01
 0.1625851006612E+00 -0.3679296659461E-01
 0.1332206342672E+01  0.4361597130726E-02
 0.1353352789290E+01  0.8111494782943E-02
 0.1374281940253E+01  0.1192088280252E-01
 0.1394936893590E+01  0.1578691697685E-01
 0.1415262328445E+01  0.1969912452517E-01
 0.1435199798521E+01  0.2364471562195E-01
 0.1454685901874E+01  0.2761045892571E-01
 0.1473651766020E+01  0.3158344110759E-01
 0.1492022974157E+01  0.3555162907909E-01
 0.1509719805690E+01  0.3950444894522E-01
 0.1526657773080E+01  0.4343346142028E-01
 0.1542748483667E+01  0.4733315215442E-01
 0.1557900853203E+01  0.5120182317558E-01
 0.1572022673722E+01  0.5504254738142E-01
 0.1585022474965E+01  0.5886409786390E-01
 0.1596811647234E+01  0.6268186541026E-01
 0.1607306366702E+01  0.6651832698954E-01
 0.1616431053769E+01  0.7040559782097E-01
 0.1624114366183E+01  0.7438041072379E-01
 0.1232859854689E+01 -0.1288364100967E+00
 0.1246356729884E+01 -0.1352891437330E+00
 0.1259607350852E+01 -0.1419940229515E+00
 0.1272615189395E+01 -0.1489570629979E+00
 0.1285388505463E+01 -0.1561769816655E+00
 0.1297936969664E+01 -0.1636492501455E+00
 0.1310270449487E+01 -0.1713675790542E+00
 0.1322398670695E+01 -0.1793245196260E+00
 0.1334331120690E+01 -0.1875117673806E+00
 0.1346077041510E+01 -0.1959203493980E+00
 0.1357645452887E+01 -0.2045407688276E+00
 0.1369045185698E+01 -0.2133631379007E+00
 0.1380284917824E+01 -0.2223773152033E+00
 0.1391373207040E+01 -0.2315730581105E+00
 0.1402318509433E+01 -0.2409401970173E+00
 0.1413129174248E+01 -0.2504688553991E+00
 0.1423813338195E+01 -0.2601496784147E+00
 0.1434378904726E+01 -0.2699744495117E+00
 0.1444832186804E+01 -0.2799357638946E+00
 0.1249677154887E-02  0.2261520206969E-02
 0.2412768403147E-02  0.4365823945715E-02
 0.3493908309990E-02  0.6260434619558E-02
 0.4625716617204E-02  0.8072234939112E-02
 0.5829720369082E-02  0.9820020478241E-02
 0.7123751304120E-02  0.1151783388173E-01
 0.8516296185270E-02  0.1317217586227E-01
 0.1001234697171E-01  0.1478675665739E-01
 0.1161444788426E-01  0.1636363945065E-01
 0.1332363094796E-01  0.1790399914815E-01
 0.1513985551638E-01  0.1940850408050E-01
 0.1706232966723E-01  0.2087759168995E-01
 0.1908968221140E-01  0.2231164638619E-01
 0.2122008156652E-01  0.2371119123500E-01
 0.2345128613459E-01  0.2507723972577E-01
 0.2578124652753E-01  0.2641153042323E-01
 0.2821006691725E-01  0.2771996509160E-01
 0.3073913585790E-01  0.2901133964841E-01
 0.3336742189343E-01  0.3028845808283E-01
 0.3609117463948E-01  0.3154999725673E-01
 0.3890537886659E-01  0.3279377305003E-01
 0.4180474817380E-01  0.3401833105114E-01
 0.4478396968047E-01  0.3522334562436E-01
 0.4783789058725E-01  0.3640972969744E-01
 0.5096160409549E-01  0.3757968318729E-01
 0.5415047514578E-01  0.3873676667864E-01
 0.5740013604046E-01  0.3988608597923E-01
 0.6070638857137E-01  0.4103232938456E-01
 0.6406549489255E-01  0.4217989364810E-01
 0.6747472499553E-01  0.4333548263480E-01
 0.7093290572094E-01  0.4450838398613E-01
 0.7444094196005E-01  0.4571075178122E-01
 0.7800280136070E-01  0.4695809598480E-01
 0.8162686935256E-01  0.4826955113239E-01