<VTKFile type="UnstructuredGrid" version="1,0" byte_order="LittleEndian">
<UnstructuredGrid>
<Piece NumberOfPoints="5802" NumberOfCells="5680">
<Points>
<DataArray type="Float64" NumberOfComponents="3" format="ascii">
-0.1100000000000E+01 -0.4260376958938E+01  0.0000000000000E+00
 0.0000000000000E+00 -0.4260376958938E+01  0.0000000000000E+00
 0.1100000000000E+01 -0.4260376958938E+01  0.0000000000000E+00
-0.1294830748007E+01 -0.1260376958938E+01  0.0000000000000E+00
-0.6474153677980E+00 -0.1260376958938E+01  0.0000000000000E+00
 0.6474153802085E+00 -0.1260376958938E+01  0.0000000000000E+00
 0.1294830748007E+01 -0.1260376958938E+01  0.0000000000000E+00
-0.1038349899718E+01  0.8622996231128E+00  0.0000000000000E+00
 0.1038349908233E+01  0.8622996153791E+00  0.0000000000000E+00
-0.5250000000000E+00  0.3489497150362E+00  0.0000000000000E+00
 0.5250000000000E+00  0.3489497150362E+00  0.0000000000000E+00
-0.1072500000000E+01 -0.4260376958938E+01  0.0000000000000E+00
-0.1045000000000E+01 -0.4260376958938E+01  0.0000000000000E+00
-0.1017500000000E+01 -0.4260376958938E+01  0.0000000000000E+00
-0.9900000000000E+00 -0.4260376958938E+01  0.0000000000000E+00
-0.9625000000000E+00 -0.4260376958938E+01  0.0000000000000E+00
-0.9350000000000E+00 -0.4260376958938E+01  0.0000000000000E+00
-0.9075000000000E+00 -0.4260376958938E+01  0.0000000000000E+00
-0.8800000000000E+00 -0.4260376958938E+01  0.0000000000000E+00
-0.8525000000000E+00 -0.4260376958938E+01  0.0000000000000E+00
-0.8250000000000E+00 -0.4260376958938E+01  0.0000000000000E+00
-0.7975000000000E+00 -0.4260376958938E+01  0.0000000000000E+00
-0.7700000000000E+00 -0.4260376958938E+01  0.0000000000000E+00
-0.7425000000000E+00 -0.4260376958938E+01  0.0000000000000E+00
-0.7150000000000E+00 -0.4260376958938E+01  0.0000000000000E+00
-0.6875000000000E+00 -0.4260376958938E+01  0.0000000000000E+00
-0.6600000000000E+00 -0.4260376958938E+01  0.0000000000000E+00
-0.6325000000000E+00 -0.4260376958938E+01  0.0000000000000E+00
-0.6050000000000E+00 -0.4260376958938E+01  0.0000000000000E+00
-0.5775000000000E+00 -0.4260376958938E+01  0.0000000000000E+00
-0.5500000000000E+00 -0.4260376958938E+01  0.0000000000000E+00
-0.5225000000000E+00 -0.4260376958938E+01  0.0000000000000E+00
-0.4950000000000E+00 -0.4260376958938E+01  0.0000000000000E+00
-0.4675000000000E+00 -0.4260376958938E+01  0.0000000000000E+00
-0.4400000000000E+00 -0.4260376958938E+01  0.0000000000000E+00
-0.4125000000000E+00 -0.4260376958938E+01  0.0000000000000E+00
-0.3850000000000E+00 -0.4260376958938E+01  0.0000000000000E+00
-0.3575000000000E+00 -0.4260376958938E+01  0.0000000000000E+00
-0.3300000000000E+00 -0.4260376958938E+01  0.0000000000000E+00
-0.3025000000000E+00 -0.4260376958938E+01  0.0000000000000E+00
-0.2750000000000E+00 -0.4260376958938E+01  0.0000000000000E+00
-0.2475000000000E+00 -0.4260376958938E+01  0.0000000000000E+00
-0.2200000000000E+00 -0.4260376958938E+01  0.0000000000000E+00
-0.1925000000000E+00 -0.4260376958938E+01  0.0000000000000E+00
-0.1650000000000E+00 -0.4260376958938E+01  0.0000000000000E+00
-0.1375000000000E+00 -0.4260376958938E+01  0.0000000000000E+00
-0.1100000000000E+00 -0.4260376958938E+01  0.0000000000000E+00
-0.8250000000000E-01 -0.4260376958938E+01  0.0000000000000E+00
-0.5500000000000E-01 -0.4260376958938E+01  0.0000000000000E+00
-0.2750000000000E-01 -0.4260376958938E+01  0.0000000000000E+00
 0.2750000000000E-01 -0.4260376958938E+01  0.0000000000000E+00
 0.5500000000000E-01 -0.4260376958938E+01  0.0000000000000E+00
 0.8250000000000E-01 -0.4260376958938E+01  0.0000000000000E+00
 0.1100000000000E+00 -0.4260376958938E+01  0.0000000000000E+00
 0.1375000000000E+00 -0.4260376958938E+01  0.0000000000000E+00
 0.1650000000000E+00 -0.4260376958938E+01  0.0000000000000E+00
 0.1925000000000E+00 -0.4260376958938E+01  0.0000000000000E+00
 0.2200000000000E+00 -0.4260376958938E+01  0.0000000000000E+00
 0.2475000000000E+00 -0.4260376958938E+01  0.0000000000000E+00
 0.2750000000000E+00 -0.4260376958938E+01  0.0000000000000E+00
 0.3025000000000E+00 -0.4260376958938E+01  0.0000000000000E+00
 0.3300000000000E+00 -0.4260376958938E+01  0.0000000000000E+00
 0.3575000000000E+00 -0.4260376958938E+01  0.0000000000000E+00
 0.3850000000000E+00 -0.4260376958938E+01  0.0000000000000E+00
 0.4125000000000E+00 -0.4260376958938E+01  0.0000000000000E+00
 0.4400000000000E+00 -0.4260376958938E+01  0.0000000000000E+00
 0.4675000000000E+00 -0.4260376958938E+01  0.0000000000000E+00
 0.4950000000000E+00 -0.4260376958938E+01  0.0000000000000E+00
 0.5225000000000E+00 -0.4260376958938E+01  0.0000000000000E+00
 0.5500000000000E+00 -0.4260376958938E+01  0.0000000000000E+00
 0.5775000000000E+00 -0.4260376958938E+01  0.0000000000000E+00
 0.6050000000000E+00 -0.4260376958938E+01  0.0000000000000E+00
 0.6325000000000E+00 -0.4260376958938E+01  0.0000000000000E+00
 0.6600000000000E+00 -0.4260376958938E+01  0.0000000000000E+00
 0.6875000000000E+00 -0.4260376958938E+01  0.0000000000000E+00
 0.7150000000000E+00 -0.4260376958938E+01  0.0000000000000E+00
 0.7425000000000E+00 -0.4260376958938E+01  0.0000000000000E+00
 0.7700000000000E+00 -0.4260376958938E+01  0.0000000000000E+00
 0.7975000000000E+00 -0.4260376958938E+01  0.0000000000000E+00
 0.8250000000000E+00 -0.4260376958938E+01  0.0000000000000E+00
 0.8525000000000E+00 -0.4260376958938E+01  0.0000000000000E+00
 0.8800000000000E+00 -0.4260376958938E+01  0.0000000000000E+00
 0.9075000000000E+00 -0.4260376958938E+01  0.0000000000000E+00
 0.9350000000000E+00 -0.4260376958938E+01  0.0000000000000E+00
 0.9625000000000E+00 -0.4260376958938E+01  0.0000000000000E+00
 0.9900000000000E+00 -0.4260376958938E+01  0.0000000000000E+00
 0.1017500000000E+01 -0.4260376958938E+01  0.0000000000000E+00
 0.1045000000000E+01 -0.4260376958938E+01  0.0000000000000E+00
 0.1072500000000E+01 -0.4260376958938E+01  0.0000000000000E+00
-0.1262459978996E+01 -0.1260376958938E+01  0.0000000000000E+00
-0.1230089209986E+01 -0.1260376958938E+01  0.0000000000000E+00
-0.1197718440975E+01 -0.1260376958938E+01  0.0000000000000E+00
-0.1165347671965E+01 -0.1260376958938E+01  0.0000000000000E+00
-0.1132976902954E+01 -0.1260376958938E+01  0.0000000000000E+00
-0.1100606133944E+01 -0.1260376958938E+01  0.0000000000000E+00
-0.1068235364934E+01 -0.1260376958938E+01  0.0000000000000E+00
-0.1035864595923E+01 -0.1260376958938E+01  0.0000000000000E+00
-0.1003493826913E+01 -0.1260376958938E+01  0.0000000000000E+00
-0.9711230579023E+00 -0.1260376958938E+01  0.0000000000000E+00
-0.9387522888919E+00 -0.1260376958938E+01  0.0000000000000E+00
-0.9063815198814E+00 -0.1260376958938E+01  0.0000000000000E+00
-0.8740107508710E+00 -0.1260376958938E+01  0.0000000000000E+00
-0.8416399818606E+00 -0.1260376958938E+01  0.0000000000000E+00
-0.8092692128501E+00 -0.1260376958938E+01  0.0000000000000E+00
-0.7768984438397E+00 -0.1260376958938E+01  0.0000000000000E+00
-0.7445276748293E+00 -0.1260376958938E+01  0.0000000000000E+00
-0.7121569058189E+00 -0.1260376958938E+01  0.0000000000000E+00
-0.6797861368084E+00 -0.1260376958938E+01  0.0000000000000E+00
-0.6150445990978E+00 -0.1260376958938E+01  0.0000000000000E+00
-0.5826738303977E+00 -0.1260376958938E+01  0.0000000000000E+00
-0.5503030616975E+00 -0.1260376958938E+01  0.0000000000000E+00
-0.5179322929974E+00 -0.1260376958938E+01  0.0000000000000E+00
-0.4855615242972E+00 -0.1260376958938E+01  0.0000000000000E+00
-0.4531907555970E+00 -0.1260376958938E+01  0.0000000000000E+00
-0.4208199868969E+00 -0.1260376958938E+01  0.0000000000000E+00
-0.3884492181967E+00 -0.1260376958938E+01  0.0000000000000E+00
-0.3560784494965E+00 -0.1260376958938E+01  0.0000000000000E+00
-0.3237076807964E+00 -0.1260376958938E+01  0.0000000000000E+00
-0.2913369120962E+00 -0.1260376958938E+01  0.0000000000000E+00
-0.2589661433960E+00 -0.1260376958938E+01  0.0000000000000E+00
-0.2265953746959E+00 -0.1260376958938E+01  0.0000000000000E+00
-0.1942246059957E+00 -0.1260376958938E+01  0.0000000000000E+00
-0.1618538372956E+00 -0.1260376958938E+01  0.0000000000000E+00
-0.1294830685954E+00 -0.1260376958938E+01  0.0000000000000E+00
-0.9711229989523E-01 -0.1260376958938E+01  0.0000000000000E+00
-0.6474153119507E-01 -0.1260376958938E+01  0.0000000000000E+00
-0.3237076249490E-01 -0.1260376958938E+01  0.0000000000000E+00
 0.6205262220726E-08 -0.1260376958938E+01  0.0000000000000E+00
 0.3237077490543E-01 -0.1260376958938E+01  0.0000000000000E+00
 0.6474154360559E-01 -0.1260376958938E+01  0.0000000000000E+00
 0.9711231230575E-01 -0.1260376958938E+01  0.0000000000000E+00
 0.1294830810059E+00 -0.1260376958938E+01  0.0000000000000E+00
 0.1618538497061E+00 -0.1260376958938E+01  0.0000000000000E+00
 0.1942246184062E+00 -0.1260376958938E+01  0.0000000000000E+00
 0.2265953871064E+00 -0.1260376958938E+01  0.0000000000000E+00
 0.2589661558066E+00 -0.1260376958938E+01  0.0000000000000E+00
 0.2913369245067E+00 -0.1260376958938E+01  0.0000000000000E+00
 0.3237076932069E+00 -0.1260376958938E+01  0.0000000000000E+00
 0.3560784619071E+00 -0.1260376958938E+01  0.0000000000000E+00
 0.3884492306072E+00 -0.1260376958938E+01  0.0000000000000E+00
 0.4208199993074E+00 -0.1260376958938E+01  0.0000000000000E+00
 0.4531907680076E+00 -0.1260376958938E+01  0.0000000000000E+00
 0.4855615367077E+00 -0.1260376958938E+01  0.0000000000000E+00
 0.5179323054079E+00 -0.1260376958938E+01  0.0000000000000E+00
 0.5503030741080E+00 -0.1260376958938E+01  0.0000000000000E+00
 0.5826738428082E+00 -0.1260376958938E+01  0.0000000000000E+00
 0.6150446115084E+00 -0.1260376958938E+01  0.0000000000000E+00
 0.6797861485984E+00 -0.1260376958938E+01  0.0000000000000E+00
 0.7121569169883E+00 -0.1260376958938E+01  0.0000000000000E+00
 0.7445276853782E+00 -0.1260376958938E+01  0.0000000000000E+00
 0.7768984537681E+00 -0.1260376958938E+01  0.0000000000000E+00
 0.8092692221580E+00 -0.1260376958938E+01  0.0000000000000E+00
 0.8416399905479E+00 -0.1260376958938E+01  0.0000000000000E+00
 0.8740107589378E+00 -0.1260376958938E+01  0.0000000000000E+00
 0.9063815273277E+00 -0.1260376958938E+01  0.0000000000000E+00
[...]
<PointData Vectors="'U'">
<DataArray type="Float64" Name="U" NumberOfComponents="2" ComponentName0="U1" ComponentName1="U2" format="ascii">
-0.4789715383087E-37 -0.1189974940168E-36
-0.4482452486142E-39 -0.1248153153580E-37
-0.1790024914733E-37  0.4489639956895E-37
 0.8085450144320E-01  0.3254874926862E-01
 0.8082790556510E-01  0.9420264654800E-02
 0.9018062110680E-01 -0.3337631911698E-01
 0.1060675569672E+00 -0.8123451191071E-01
 0.1239795232410E+01 -0.3418854292986E+00
 0.1328953334724E+01 -0.3755756367250E+00
 0.9353278918773E+00 -0.4123640586551E+00
 0.1146380865083E+01 -0.3162187673772E+00
 0.1204449332339E-36  0.1659616081332E-36
 0.1143266824997E-36  0.1543022371455E-36
 0.1103288064596E-36  0.1415847549696E-36
 0.1065230004753E-36  0.1301607738019E-36
 0.1027101544817E-36  0.1201365606066E-36
 0.9891661728565E-37  0.1112911599347E-36
 0.9517833734812E-37  0.1033981536967E-36
 0.9151578336094E-37  0.9627486555676E-37
 0.8793702100477E-37  0.8978077515589E-37
 0.8444279086132E-37  0.8380818816530E-37
 0.8103000102038E-37  0.7827373782667E-37
 0.7769377096804E-37  0.7311195723414E-37
 0.7442855265241E-37  0.6827064706113E-37
 0.7122871880283E-37  0.6370756783878E-37
 0.6808885560021E-37  0.5938806561862E-37
 0.6500389484225E-37  0.5528334873702E-37
 0.6196916071744E-37  0.5136922054198E-37
 0.5898037246507E-37  0.4762513460406E-37
 0.5603362543292E-37  0.4403348085545E-37
 0.5312536269115E-37  0.4057903930090E-37
 0.5025234365735E-37  0.3724855696592E-37
 0.4741161303339E-37  0.3403041655517E-37
 0.4460047168095E-37  0.3091437442686E-37
 0.4181645006250E-37  0.2789135128019E-37
 0.3905728443235E-37  0.2495326357016E-37
 0.3632089568839E-37  0.2209288663353E-37
 0.3360537068113E-37  0.1930374275430E-37
 0.3090894573134E-37  0.1658000901862E-37
 0.2822999210188E-37  0.1391644100531E-37
 0.2556700318213E-37  0.1130830924888E-37
 0.2291858316558E-37  0.8751346082725E-38
 0.2028343702615E-37  0.6241700980192E-38
 0.1766036162339E-37  0.3775902901935E-38
 0.1504823779042E-37  0.1350828461082E-38
 0.1244602327890E-37 -0.1036325046012E-38
 0.9852746454963E-38 -0.3388062509223E-38
 0.7267500655855E-38 -0.5706610391987E-38
 0.4689439132320E-38 -0.7993933135301E-38
 0.2117770514552E-38 -0.1025174698074E-37
-0.3009300516731E-38 -0.1468453933934E-37
-0.5566043180287E-38 -0.1686180362927E-37
-0.8119079498103E-38 -0.1901414446753E-37
-0.1066897655887E-37 -0.2114217333545E-37
-0.1321626436557E-37 -0.2324629627565E-37
-0.1576143752980E-37 -0.2532671562204E-37
-0.1830495655011E-37 -0.2738343032753E-37
-0.2084724863244E-37 -0.2941623486726E-37
-0.2338870799231E-37 -0.3142471666432E-37
-0.2592969555434E-37 -0.3340825195338E-37
-0.2847053793494E-37 -0.3536599996510E-37
-0.3101152555465E-37 -0.3729689528164E-37
-0.3355290967528E-37 -0.3919963817990E-37
-0.3609489808740E-37 -0.4107268274682E-37
-0.3863764907999E-37 -0.4291422252279E-37
-0.4118126319371E-37 -0.4472217340931E-37
-0.4372577207777E-37 -0.4649415357576E-37
-0.4627112351194E-37 -0.4822746013312E-37
-0.4881716128369E-37 -0.4991904243807E-37
-0.5136359806716E-37 -0.5156547209896E-37
-0.5390997864044E-37 -0.5316291018843E-37
-0.5645562958645E-37 -0.5470707276785E-37
-0.5899958969866E-37 -0.5619319760164E-37
-0.6154051249896E-37 -0.5761601694768E-37
-0.6407652763359E-37 -0.5896974626470E-37
-0.6660504059723E-37 -0.6024810697261E-37
-0.6912243832609E-37 -0.6144441725084E-37
-0.7162364876208E-37 -0.6255181524669E-37
-0.7410147084017E-37 -0.6356373918636E-37
-0.7654554097247E-37 -0.6447491230402E-37
-0.7894072734296E-37 -0.6528334541984E-37
-0.8126465492852E-37 -0.6599446989484E-37
-0.8348405784526E-37 -0.6662996244904E-37
-0.8555020108189E-37 -0.6724760557145E-37
-0.8739681115997E-37 -0.6798939198432E-37
-0.8895946515295E-37 -0.6921025584590E-37
-0.9031213813764E-37 -0.7187241028673E-37
-0.9244215446250E-37 -0.7899649523468E-37
-0.1019922651015E-36 -0.1024549915307E-36
 0.8073439412120E-01  0.3119976498050E-01
 0.8065666280662E-01  0.2993708662011E-01
 0.8060583392370E-01  0.2871247817618E-01
 0.8057327293206E-01  0.2750716246864E-01
 0.8055297846058E-01  0.2631377456099E-01
 0.8054114016104E-01  0.2512933335559E-01
 0.8053541964949E-01  0.2395275036077E-01
 0.8053443397565E-01  0.2278377744584E-01
 0.8053741096285E-01  0.2162253403766E-01
 0.8054397025199E-01  0.2046928342643E-01
 0.8055398513797E-01  0.1932432344990E-01
 0.8056749452365E-01  0.1818793206954E-01
 0.8058464557962E-01  0.1706034038850E-01
 0.8060565523734E-01  0.1594171991812E-01
 0.8063078320654E-01  0.1483217757415E-01
 0.8066031179760E-01  0.1373175525332E-01
 0.8069452906330E-01  0.1264043290805E-01
 0.8073371239575E-01  0.1155813664691E-01
 0.8077810725721E-01  0.1048475821706E-01
 0.8088346234923E-01  0.8364021142067E-02
 0.8094615829024E-01  0.7315808889932E-02
 0.8101597998188E-01  0.6275351589337E-02
 0.8109309960545E-01  0.5242222507061E-02
 0.8117772715838E-01  0.4215971579477E-02
 0.8127008715194E-01  0.3196109995101E-02
 0.8137040483053E-01  0.2182109800729E-02
 0.8147889999374E-01  0.1173404997925E-02
 0.8159578394232E-01  0.1693933511801E-03
 0.8172125808078E-01 -0.8305618275828E-03
 0.8185551340145E-01 -0.1827130083128E-02
 0.8199873045184E-01 -0.2821012449405E-02
 0.8215107958702E-01 -0.3812940313590E-02
 0.8231272139455E-01 -0.4803674498476E-02
 0.8248380723044E-01 -0.5794004553097E-02
 0.8266447982980E-01 -0.6784748246354E-02
 0.8285487397309E-01 -0.7776751261455E-02
 0.8305511719538E-01 -0.8770887092276E-02
 0.8326533053301E-01 -0.9768057147988E-02
 0.8348562930630E-01 -0.1076919107567E-01
 0.8371612393970E-01 -0.1177524731489E-01
 0.8395692082362E-01 -0.1278721390263E-01
 0.8420812322427E-01 -0.1380610955225E-01
 0.8446983225045E-01 -0.1483298503552E-01
 0.8474214788779E-01 -0.1586892490368E-01
 0.8502517011309E-01 -0.1691504959098E-01
 0.8531900010345E-01 -0.1797251795361E-01
 0.8562374155624E-01 -0.1904253030661E-01
 0.8593950213577E-01 -0.2012633203469E-01
 0.8626639506388E-01 -0.2122521786564E-01
 0.8660454086653E-01 -0.2234053690777E-01
 0.8695406928224E-01 -0.2347369856469E-01
 0.8731512132406E-01 -0.2462617944262E-01
 0.8768785147249E-01 -0.2579953133432E-01
 0.8807242995363E-01 -0.2699539027523E-01
 0.8846904513639E-01 -0.2821548637892E-01
 0.8887790626567E-01 -0.2946165357255E-01
 0.8929924904633E-01 -0.3073583538129E-01
 0.8973334644636E-01 -0.3204008168788E-01
 0.9064127178816E-01 -0.3474762753325E-01
 0.9111684525629E-01 -0.3615685659083E-01
 0.9160767007490E-01 -0.3760694073533E-01
 0.9211441721992E-01 -0.3910129837544E-01
 0.9263797476249E-01 -0.4064379032027E-01
 0.9317947247858E-01 -0.4223883984746E-01
 0.9374033518668E-01 -0.4389157995750E-01
 0.9432237132648E-01 -0.4560805517362E-01
 0.9492790632533E-01 -0.4739550524320E-01
 0.9555998274381E-01 -0.4926277684317E-01
 0.9622266411520E-01 -0.5122094250183E-01
 0.9692150232127E-01 -0.5328426955938E-01
 0.9766426193617E-01 -0.5547180806948E-01
 0.9846203859904E-01 -0.5781012717772E-01
 0.9933094016345E-01 -0.6033830043785E-01
 0.1002944679667E+00 -0.6311755657440E-01
 0.1013862292349E+00 -0.6625156681865E-01
 0.1026526040772E+00 -0.6993293262838E-01
 0.1041425173811E+00 -0.7458447352559E-01
 0.8952361124155E-01  0.4008487165335E-01
 0.1044038992558E+00  0.4999305492110E-01
 0.1268078047493E+00  0.5859770734477E-01
 0.1555773417582E+00  0.6530567936771E-01
 0.1896780930144E+00  0.6994905183203E-01
 0.2283222679807E+00  0.7254547054421E-01
 0.2709673579347E+00  0.7316892365163E-01
 0.3172718405978E+00  0.7199373991178E-01
 0.3670911243511E+00  0.6924168405028E-01
 0.4204991300207E+00  0.6511065266156E-01
 0.4777779497581E+00  0.5991350581407E-01
 0.5392990548433E+00  0.5441306948941E-01
 0.6062593501101E+00  0.4576712960351E-01
 0.6799590952980E+00  0.2980734841174E-01
 0.7619245127818E+00  0.3048272567413E-02
 0.8564472165200E+00 -0.4062288669468E-01
 0.9617548993832E+00 -0.1027605645796E+00
 0.1066521587917E+01 -0.1774000030003E+00
 0.1161215013652E+01 -0.2584015028800E+00
 0.1271818760094E+01 -0.3845441144902E+00
 0.1298879751338E+01 -0.4255622451357E+00
 0.1321338129793E+01 -0.4642107020992E+00
 0.1339568023167E+01 -0.4998623281174E+00
 0.1353993662935E+01 -0.5319741278077E+00
 0.1365089278356E+01 -0.5600982796358E+00
 0.1373343713987E+01 -0.5839050745171E+00
 0.1379185875938E+01 -0.6032181882042E+00
 0.1382811994426E+01 -0.6180189331424E+00
 0.1384045332514E+01 -0.6282497833389E+00
 0.1383020752062E+01 -0.6338139027520E+00
 0.1380142198285E+01 -0.6346496026430E+00
 0.1375895785041E+01 -0.6307676870831E+00
 0.1370764272184E+01 -0.6222653169128E+00
 0.1365198976730E+01 -0.6093260680727E+00
 0.1359615711835E+01 -0.5922210961966E+00
 0.1354395890903E+01 -0.5713100769374E+00
 0.1349889305306E+01 -0.5470501488416E+00
 0.1346413431810E+01 -0.5200105519712E+00
 0.1344247251057E+01 -0.4908992498662E+00
 0.1343585020782E+01 -0.4606133544826E+00
 0.1344398723803E+01 -0.4303128415190E+00
 0.1346407273736E+01 -0.4015687160916E+00
 0.1349018150898E+01 -0.3770785464667E+00
 0.1351617660143E+01 -0.3590831364380E+00
 0.1354004454825E+01 -0.3467101378111E+00
 0.1356117318327E+01 -0.3380730556870E+00
 0.1357795939705E+01 -0.3322893201771E+00
 0.1358938346271E+01 -0.3288108501518E+00
 0.1359464889865E+01 -0.3272522645605E+00
 0.1359322257377E+01 -0.3273218031306E+00
 0.1358518378193E+01 -0.3287944933187E+00
 0.1357138393385E+01 -0.3315154379684E+00
 0.1355209033574E+01 -0.3353851190246E+00
 0.1352692299608E+01 -0.3402858357789E+00
 0.1349520905990E+01 -0.3460852615701E+00
 0.1345621688462E+01 -0.3526478856961E+00
 0.1340927949417E+01 -0.3598409438452E+00
 0.1335385469220E+01 -0.3675393305504E+00
 0.1312326296158E+01 -0.3921493535324E+00
 0.1291528697027E+01 -0.4088029998334E+00
 0.1266842504400E+01 -0.4251842035922E+00
 0.1238187775299E+01 -0.4406420528290E+00
 0.1205247420192E+01 -0.4540442617610E+00
 0.1167810551134E+01 -0.4640743175003E+00
 0.1126021683410E+01 -0.4697752120786E+00
 0.1080073415105E+01 -0.4702892108798E+00
 0.1030460343632E+01 -0.4664794588824E+00
 0.9775702280736E+00 -0.4600822191434E+00
 0.9212309242891E+00 -0.4505663096370E+00
 0.8613299148620E+00 -0.4375558770016E+00
 0.7976938184538E+00 -0.4207076842052E+00
 0.7300058182643E+00 -0.3995088538750E+00
 0.6577410975333E+00 -0.3732196442527E+00
 0.5800202441347E+00 -0.3408099171931E+00
 0.4952573640364E+00 -0.3002790359568E+00
 0.4000384704571E+00 -0.2478618591593E+00
 0.2877126721303E+00 -0.1714511680000E+00
 0.1000423973000E-02  0.1817068627242E-02
 0.1757789313299E-02  0.3183802934152E-02
 0.2532663722363E-02  0.4475804663358E-02
 0.3359907636920E-02  0.5711004561535E-02
 0.4260788223543E-02  0.6903984202894E-02
 0.5243647034333E-02  0.8060772767204E-02
 0.6313346416757E-02  0.9184197773043E-02
 0.7472091973891E-02  0.1027559479633E-01
 0.8720709544384E-02  0.1133545651899E-01
 0.1005907372912E-01  0.1236381593617E-01
 0.1148640881380E-01  0.1336043235281E-01
 0.1300147841767E-01  0.1432492852201E-01
 0.1460268708381E-01  0.1525687292968E-01
 0.1628815027349E-01  0.1615587461343E-01
 0.1805573341156E-01  0.1702177309134E-01
 0.1990336253646E-01  0.1785555187946E-01
 0.2183004427804E-01  0.1866220097478E-01
 0.2383522193455E-01  0.1944770466604E-01
 0.2591669730425E-01  0.2021221902469E-01
 0.2807055720689E-01  0.2095329582798E-01
 0.3029200144095E-01  0.2166827874669E-01
 0.3257589250095E-01  0.2235514266664E-01
 0.3491682927974E-01  0.2301260910766E-01
 0.3730922379781E-01  0.2364015846534E-01
 0.3974730275018E-01  0.2423806270852E-01
 0.4222503365713E-01  0.2480748653542E-01
 0.4473607769234E-01  0.2535057986200E-01
 0.4727382382391E-01  0.2586897501321E-01
 0.4983155209648E-01  0.2636401652491E-01
 0.5240255188475E-01  0.2683860707573E-01
 0.5498027774274E-01  0.2729722927058E-01
 0.5755843079934E-01  0.2774611881725E-01
 0.6013121241098E-01  0.2819353430324E-01
 0.6269357778149E-01  0.2864986226193E-01
 0.6524184058345E-01  0.2912671417011E-01
 0.6777522882135E-01  0.2963189359101E-01
 0.7029968381079E-01  0.3015654851501E-01
 0.7282457555972E-01  0.3069294064371E-01
 0.7536636320458E-01  0.3124814310664E-01
 0.7793419256123E-01  0.3185958038372E-01
 0.9334734513694E-01 -0.7531979047825E-01
 0.8722286975291E-01 -0.7087833735257E-01
 0.8210648333585E-01 -0.6752494192135E-01
 0.7770253620117E-01 -0.6460183300329E-01
 0.7372304384614E-01 -0.6196291280766E-01
 0.7005340591714E-01 -0.5953844384443E-01
 0.6661453075189E-01 -0.5730821348096E-01
 0.6335516826290E-01 -0.5524290456392E-01
 0.6023917014148E-01 -0.5330986246783E-01
 0.5724157341094E-01 -0.5148059577256E-01
 0.5434495158967E-01 -0.4973213543917E-01
 0.5153718273051E-01 -0.4804638144203E-01
 0.4880988751333E-01 -0.4640915668510E-01
 0.4615753771446E-01 -0.4480961945975E-01
 0.4357657836890E-01 -0.4324025500944E-01
 0.4106458383085E-01 -0.4169432918560E-01
 0.3862003851710E-01 -0.4016454977778E-01
 0.3624251494592E-01 -0.3864469370483E-01
 0.3393253792210E-01 -0.3713002414656E-01
 0.3169142044068E-01 -0.3561730662783E-01
 0.2952107684577E-01 -0.3410485926418E-01
 0.2742375160650E-01 -0.3259267129948E-01
 0.2540166387537E-01 -0.3108250094388E-01
 0.2345600902335E-01 -0.2957698072784E-01
 0.2158557510378E-01 -0.2807624294814E-01
 0.1978711277538E-01 -0.2657199987239E-01
 0.1805904193697E-01 -0.2505444479250E-01
 0.1640212038180E-01 -0.2351861927211E-01
 0.1481735486564E-01 -0.2196212876298E-01
 0.1330537848883E-01 -0.2038333462526E-01
 0.1186637790991E-01 -0.1878090788081E-01
 0.1049994949154E-01 -0.1715358581365E-01
 0.9204904542746E-02 -0.1549996512665E-01
 0.7978953178933E-02 -0.1381821121020E-01
 0.6818200737102E-02 -0.1210568224168E-01
 0.5716452266858E-02 -0.1035821917720E-01
 0.4663217668899E-02 -0.8568963389293E-02
 0.3642413506320E-02 -0.6725379672326E-02
 0.2618081545442E-02 -0.4800409687878E-02
 0.1532898965031E-02 -0.2757927189066E-02
 0.9484461174732E+00 -0.4171434373260E+00
 0.9612384676352E+00 -0.4211872117394E+00
 0.9736970981890E+00 -0.4245015352072E+00
 0.9858050037490E+00 -0.4271033242425E+00
 0.9975453613052E+00 -0.4290109565086E+00
 0.1008902080105E+01 -0.4302451675870E+00
 0.1019860123859E+01 -0.4308290705691E+00
 0.1030405767720E+01 -0.4307882604270E+00
 0.1040526626546E+01 -0.4301508100949E+00
 0.1050211810058E+01 -0.4289472004472E+00
 0.1059451892577E+01 -0.4272099731486E+00
 0.1068238923825E+01 -0.4249737246507E+00
 0.1076566465598E+01 -0.4222750372125E+00
 0.1084429648996E+01 -0.4191522905101E+00
 0.1091825235188E+01 -0.4156454205763E+00
 0.1098751683153E+01 -0.4117956498586E+00
 0.1105209197800E+01 -0.4076451933276E+00
 0.1111199769480E+01 -0.4032369532415E+00
 0.1116727198212E+01 -0.3986141995070E+00
 0.1121797099335E+01 -0.3938202483132E+00
 0.1126416880619E+01 -0.3888981205206E+00
 0.1130595660645E+01 -0.3838900980844E+00
 0.1134344139734E+01 -0.3788373862993E+00
 0.1137674455617E+01 -0.3737798138350E+00
 0.1140600014917E+01 -0.3687555385427E+00
 0.1143135295748E+01 -0.3638007716809E+00
 0.1145295624330E+01 -0.3589495341936E+00
 0.1147096930936E+01 -0.3542334450407E+00
 0.1148555492032E+01 -0.3496815399115E+00
 0.1149687661424E+01 -0.3453201231178E+00
 0.1150509601822E+01 -0.3411726301837E+00
 0.1151037033997E+01 -0.3372594915707E+00
 0.1151285014427E+01 -0.3335982136273E+00
 0.1151267760588E+01 -0.3302040224216E+00
 0.1150998725546E+01 -0.3270904257830E+00
 0.1150490694759E+01 -0.3242695319038E+00
 0.1149756135699E+01 -0.3217528893304E+00
 0.1148808543410E+01 -0.3195537071018E+00
 0.1147666444030E+01 -0.3176922201596E+00
 0.8772167722157E+00 -0.3818582479330E+00
 0.8196430751038E+00 -0.3512225560995E+00
 0.7629329835208E+00 -0.3207756709780E+00
 0.7072598489060E+00 -0.2908044280830E+00
 0.6527070935850E+00 -0.2615317703732E+00
 0.5993285358254E+00 -0.2331308212537E+00
 0.5472021869337E+00 -0.2057409433626E+00
 0.4964627912936E+00 -0.1794866588990E+00
 0.4473105809625E+00 -0.1544932052483E+00
 0.3999956681226E+00 -0.1308893443479E+00
 0.3547819308052E+00 -0.1087933382081E+00
 0.3119241439485E+00 -0.8830026682061E-01
 0.2716532447491E+00 -0.6947445100067E-01
 0.2341812166087E+00 -0.5235604982084E-01
 0.1997174973467E+00 -0.3698153839275E-01
 0.1684844237435E+00 -0.2341036443421E-01
 0.1407235633887E+00 -0.1175106840071E-01
 0.1166923502054E+00 -0.2185737912460E-02
 0.9665066482297E-01  0.5005388044945E-02
 0.1104985059615E+01 -0.3065158792081E+00
 0.1061362574745E+01 -0.2952924084442E+00
 0.1015871004784E+01 -0.2825701850749E+00
 0.9688676093584E+00 -0.2685220330231E+00
 0.9206514839004E+00 -0.2533557503634E+00
 0.8714632575638E+00 -0.2372942952920E+00
 0.8214786875791E+00 -0.2205697868446E+00
 0.7707946456380E+00 -0.2034088204333E+00
 0.7193933620946E+00 -0.1860116929613E+00
 0.6671311027563E+00 -0.1685329304313E+00
 0.6137701656780E+00 -0.1510849089616E+00
 0.5590632916476E+00 -0.1337834622513E+00
 0.5028667091493E+00 -0.1168058548966E+00
 0.4451996945575E+00 -0.1004196021556E+00
 0.3862523185826E+00 -0.8497293548116E-01
 0.3263781313090E+00 -0.7085796200305E-01
 0.2660918668796E+00 -0.5845507720264E-01
 0.2060699650626E+00 -0.4805769382830E-01
 0.1471366682465E+00 -0.3977064545822E-01
 0.9455132208743E+00 -0.4194207499554E+00
 0.9558251637540E+00 -0.4259726739761E+00
 0.9663077216105E+00 -0.4319368177259E+00
 0.9770065270683E+00 -0.4372464166292E+00
 0.9879708688451E+00 -0.4418237650589E+00
 0.9992563823897E+00 -0.4455832532612E+00
 0.1010926057873E+01 -0.4484312633873E+00
 0.1023050882451E+01 -0.4502660821675E+00
 0.1035710285529E+01 -0.4509774128718E+00
 0.1048992443002E+01 -0.4504456728883E+00
 0.1062994382224E+01 -0.4485410998080E+00
 0.1077821759129E+01 -0.4451226879607E+00
 0.1093588087664E+01 -0.4400369794063E+00
 0.1110413068290E+01 -0.4331167738990E+00
 0.1128419444135E+01 -0.4241799444142E+00
 0.1147727572851E+01 -0.4130287158902E+00
 0.1168446365390E+01 -0.3994505988354E+00
 0.1190661244357E+01 -0.3832213189284E+00
 0.1214417450190E+01 -0.3641195845102E+00
 0.1161270150872E+01 -0.3184418407327E+00
 0.1175504846804E+01 -0.3205072329860E+00
 0.1189029544953E+01 -0.3224991364238E+00
 0.1201840313058E+01 -0.3244683088280E+00
 0.1213946046082E+01 -0.3264529331521E+00
 0.1225362140593E+01 -0.3284865481232E+00
 0.1236108356509E+01 -0.3306001725634E+00
 0.1246208107689E+01 -0.3328230459002E+00
 0.1255688124005E+01 -0.3351826744724E+00
 0.1264578180802E+01 -0.3377046081660E+00
 0.1272910788050E+01 -0.3404121125269E+00
 0.1280720809922E+01 -0.3433258321300E+00
 0.1288045015741E+01 -0.3464635047202E+00
 0.1294921575594E+01 -0.3498397711942E+00
 0.1301389510134E+01 -0.3534661104154E+00
 0.1307488115810E+01 -0.3573509505095E+00
 0.1313256263965E+01 -0.3614998776561E+00
 0.1318732002971E+01 -0.3659166379673E+00
 0.1323949880536E+01 -0.3706023324625E+00
 0.8365423822882E-03  0.1511278899266E-02
 0.1640187683643E-02  0.2919059405701E-02
 0.2415086528519E-02  0.4186096015978E-02
 0.3248171426297E-02  0.5395224469561E-02
 0.4152440591910E-02  0.6557791495057E-02
 0.5138627578457E-02  0.7682337361386E-02
 0.6211370414370E-02  0.8772540654015E-02
 0.7373084915794E-02  0.9830315144680E-02
 0.8624634832245E-02  0.1085652416583E-01
 0.9965936060640E-02  0.1185145557520E-01
 0.1139623197337E-01  0.1281505236636E-01
 0.1291429706258E-01  0.1374707427578E-01
 0.1451853835663E-01  0.1464719359541E-01
 0.1620706336416E-01  0.1551509440083E-01
 0.1797771186025E-01  0.1635065877206E-01
 0.1982840321791E-01  0.1715408506505E-01
 0.2175825073456E-01  0.1792882708440E-01
 0.2376688310872E-01  0.1868103672478E-01
 0.2585218234918E-01  0.1941258893236E-01
 0.2801018570371E-01  0.2012219191743E-01
 0.3023600539353E-01  0.2080767909785E-01
 0.3252442822687E-01  0.2146716874509E-01
 0.3486999747555E-01  0.2209939684749E-01
 0.3726708400487E-01  0.2270382391992E-01
 0.3970988076201E-01  0.2328069761092E-01
 0.4219232484538E-01  0.2383115910498E-01
 0.4470803229746E-01  0.2435743288437E-01
 0.4725031756388E-01  0.2486130134851E-01
 0.4981237960397E-01  0.2534407880601E-01
 0.5238743218372E-01  0.2580844528223E-01
 0.5496885141438E-01  0.2625857989337E-01
 0.5755025544389E-01  0.2670029291956E-01
 0.6012575764944E-01  0.2714124004087E-01
 0.6269023124078E-01  0.2759095968037E-01