<VTKFile type="UnstructuredGrid" version="1,0" byte_order="LittleEndian">
<UnstructuredGrid>
<Piece NumberOfPoints="5802" NumberOfCells="5680">
<Points>
<DataArray type="Float64" NumberOfComponents="3" format="ascii">
-0.1100000000000E+01 -0.4260376958938E+01  0.0000000000000E+00
 0.0000000000000E+00 -0.4260376958938E+01  0.0000000000000E+00
 0.1100000000000E+01 -0.4260376958938E+01  0.0000000000000E+00
-0.1294830748007E+01 -0.1260376958938E+01  0.0000000000000E+00
-0.6474153677980E+00 -0.1260376958938E+01  0.0000000000000E+00
 0.6474153802085E+00 -0.1260376958938E+01  0.0000000000000E+00
 0.1294830748007E+01 -0.1260376958938E+01  0.0000000000000E+00
-0.1038349899718E+01  0.8622996231128E+00  0.0000000000000E+00
 0.1038349908233E+01  0.8622996153791E+00  0.0000000000000E+00
-0.5250000000000E+00  0.3489497150362E+00  0.0000000000000E+00
 0.5250000000000E+00  0.3489497150362E+00  0.0000000000000E+00
-0.1072500000000E+01 -0.4260376958938E+01  0.0000000000000E+00
-0.1045000000000E+01 -0.4260376958938E+01  0.0000000000000E+00
-0.1017500000000E+01 -0.4260376958938E+01  0.0000000000000E+00
-0.9900000000000E+00 -0.4260376958938E+01  0.0000000000000E+00
-0.9625000000000E+00 -0.4260376958938E+01  0.0000000000000E+00
-0.9350000000000E+00 -0.4260376958938E+01  0.0000000000000E+00
-0.9075000000000E+00 -0.4260376958938E+01  0.0000000000000E+00
-0.8800000000000E+00 -0.4260376958938E+01  0.0000000000000E+00
-0.8525000000000E+00 -0.4260376958938E+01  0.0000000000000E+00
-0.8250000000000E+00 -0.4260376958938E+01  0.0000000000000E+00
-0.7975000000000E+00 -0.4260376958938E+01  0.0000000000000E+00
-0.7700000000000E+00 -0.4260376958938E+01  0.0000000000000E+00
-0.7425000000000E+00 -0.4260376958938E+01  0.0000000000000E+00
-0.7150000000000E+00 -0.4260376958938E+01  0.0000000000000E+00
-0.6875000000000E+00 -0.4260376958938E+01  0.0000000000000E+00
-0.6600000000000E+00 -0.4260376958938E+01  0.0000000000000E+00
-0.6325000000000E+00 -0.4260376958938E+01  0.0000000000000E+00
-0.6050000000000E+00 -0.4260376958938E+01  0.0000000000000E+00
-0.5775000000000E+00 -0.4260376958938E+01  0.0000000000000E+00
-0.5500000000000E+00 -0.4260376958938E+01  0.0000000000000E+00
-0.5225000000000E+00 -0.4260376958938E+01  0.0000000000000E+00
-0.4950000000000E+00 -0.4260376958938E+01  0.0000000000000E+00
-0.4675000000000E+00 -0.4260376958938E+01  0.0000000000000E+00
-0.4400000000000E+00 -0.4260376958938E+01  0.0000000000000E+00
-0.4125000000000E+00 -0.4260376958938E+01  0.0000000000000E+00
-0.3850000000000E+00 -0.4260376958938E+01  0.0000000000000E+00
-0.3575000000000E+00 -0.4260376958938E+01  0.0000000000000E+00
-0.3300000000000E+00 -0.4260376958938E+01  0.0000000000000E+00
-0.3025000000000E+00 -0.4260376958938E+01  0.0000000000000E+00
-0.2750000000000E+00 -0.4260376958938E+01  0.0000000000000E+00
-0.2475000000000E+00 -0.4260376958938E+01  0.0000000000000E+00
-0.2200000000000E+00 -0.4260376958938E+01  0.0000000000000E+00
-0.1925000000000E+00 -0.4260376958938E+01  0.0000000000000E+00
-0.1650000000000E+00 -0.4260376958938E+01  0.0000000000000E+00
-0.1375000000000E+00 -0.4260376958938E+01  0.0000000000000E+00
-0.1100000000000E+00 -0.4260376958938E+01  0.0000000000000E+00
-0.8250000000000E-01 -0.4260376958938E+01  0.0000000000000E+00
-0.5500000000000E-01 -0.4260376958938E+01  0.0000000000000E+00
-0.2750000000000E-01 -0.4260376958938E+01  0.0000000000000E+00
 0.2750000000000E-01 -0.4260376958938E+01  0.0000000000000E+00
 0.5500000000000E-01 -0.4260376958938E+01  0.0000000000000E+00
 0.8250000000000E-01 -0.4260376958938E+01  0.0000000000000E+00
 0.1100000000000E+00 -0.4260376958938E+01  0.0000000000000E+00
 0.1375000000000E+00 -0.4260376958938E+01  0.0000000000000E+00
 0.1650000000000E+00 -0.4260376958938E+01  0.0000000000000E+00
 0.1925000000000E+00 -0.4260376958938E+01  0.0000000000000E+00
 0.2200000000000E+00 -0.4260376958938E+01  0.0000000000000E+00
 0.2475000000000E+00 -0.4260376958938E+01  0.0000000000000E+00
 0.2750000000000E+00 -0.4260376958938E+01  0.0000000000000E+00
 0.3025000000000E+00 -0.4260376958938E+01  0.0000000000000E+00
 0.3300000000000E+00 -0.4260376958938E+01  0.0000000000000E+00
 0.3575000000000E+00 -0.4260376958938E+01  0.0000000000000E+00
 0.3850000000000E+00 -0.4260376958938E+01  0.0000000000000E+00
 0.4125000000000E+00 -0.4260376958938E+01  0.0000000000000E+00
 0.4400000000000E+00 -0.4260376958938E+01  0.0000000000000E+00
 0.4675000000000E+00 -0.4260376958938E+01  0.0000000000000E+00
 0.4950000000000E+00 -0.4260376958938E+01  0.0000000000000E+00
 0.5225000000000E+00 -0.4260376958938E+01  0.0000000000000E+00
 0.5500000000000E+00 -0.4260376958938E+01  0.0000000000000E+00
 0.5775000000000E+00 -0.4260376958938E+01  0.0000000000000E+00
 0.6050000000000E+00 -0.4260376958938E+01  0.0000000000000E+00
 0.6325000000000E+00 -0.4260376958938E+01  0.0000000000000E+00
 0.6600000000000E+00 -0.4260376958938E+01  0.0000000000000E+00
 0.6875000000000E+00 -0.4260376958938E+01  0.0000000000000E+00
 0.7150000000000E+00 -0.4260376958938E+01  0.0000000000000E+00
 0.7425000000000E+00 -0.4260376958938E+01  0.0000000000000E+00
 0.7700000000000E+00 -0.4260376958938E+01  0.0000000000000E+00
 0.7975000000000E+00 -0.4260376958938E+01  0.0000000000000E+00
 0.8250000000000E+00 -0.4260376958938E+01  0.0000000000000E+00
 0.8525000000000E+00 -0.4260376958938E+01  0.0000000000000E+00
 0.8800000000000E+00 -0.4260376958938E+01  0.0000000000000E+00
 0.9075000000000E+00 -0.4260376958938E+01  0.0000000000000E+00
 0.9350000000000E+00 -0.4260376958938E+01  0.0000000000000E+00
 0.9625000000000E+00 -0.4260376958938E+01  0.0000000000000E+00
 0.9900000000000E+00 -0.4260376958938E+01  0.0000000000000E+00
 0.1017500000000E+01 -0.4260376958938E+01  0.0000000000000E+00
 0.1045000000000E+01 -0.4260376958938E+01  0.0000000000000E+00
 0.1072500000000E+01 -0.4260376958938E+01  0.0000000000000E+00
-0.1262459978996E+01 -0.1260376958938E+01  0.0000000000000E+00
-0.1230089209986E+01 -0.1260376958938E+01  0.0000000000000E+00
-0.1197718440975E+01 -0.1260376958938E+01  0.0000000000000E+00
-0.1165347671965E+01 -0.1260376958938E+01  0.0000000000000E+00
-0.1132976902954E+01 -0.1260376958938E+01  0.0000000000000E+00
-0.1100606133944E+01 -0.1260376958938E+01  0.0000000000000E+00
-0.1068235364934E+01 -0.1260376958938E+01  0.0000000000000E+00
-0.1035864595923E+01 -0.1260376958938E+01  0.0000000000000E+00
-0.1003493826913E+01 -0.1260376958938E+01  0.0000000000000E+00
-0.9711230579023E+00 -0.1260376958938E+01  0.0000000000000E+00
-0.9387522888919E+00 -0.1260376958938E+01  0.0000000000000E+00
-0.9063815198814E+00 -0.1260376958938E+01  0.0000000000000E+00
-0.8740107508710E+00 -0.1260376958938E+01  0.0000000000000E+00
-0.8416399818606E+00 -0.1260376958938E+01  0.0000000000000E+00
-0.8092692128501E+00 -0.1260376958938E+01  0.0000000000000E+00
-0.7768984438397E+00 -0.1260376958938E+01  0.0000000000000E+00
-0.7445276748293E+00 -0.1260376958938E+01  0.0000000000000E+00
-0.7121569058189E+00 -0.1260376958938E+01  0.0000000000000E+00
-0.6797861368084E+00 -0.1260376958938E+01  0.0000000000000E+00
-0.6150445990978E+00 -0.1260376958938E+01  0.0000000000000E+00
-0.5826738303977E+00 -0.1260376958938E+01  0.0000000000000E+00
-0.5503030616975E+00 -0.1260376958938E+01  0.0000000000000E+00
-0.5179322929974E+00 -0.1260376958938E+01  0.0000000000000E+00
-0.4855615242972E+00 -0.1260376958938E+01  0.0000000000000E+00
-0.4531907555970E+00 -0.1260376958938E+01  0.0000000000000E+00
-0.4208199868969E+00 -0.1260376958938E+01  0.0000000000000E+00
-0.3884492181967E+00 -0.1260376958938E+01  0.0000000000000E+00
-0.3560784494965E+00 -0.1260376958938E+01  0.0000000000000E+00
-0.3237076807964E+00 -0.1260376958938E+01  0.0000000000000E+00
-0.2913369120962E+00 -0.1260376958938E+01  0.0000000000000E+00
-0.2589661433960E+00 -0.1260376958938E+01  0.0000000000000E+00
-0.2265953746959E+00 -0.1260376958938E+01  0.0000000000000E+00
-0.1942246059957E+00 -0.1260376958938E+01  0.0000000000000E+00
-0.1618538372956E+00 -0.1260376958938E+01  0.0000000000000E+00
-0.1294830685954E+00 -0.1260376958938E+01  0.0000000000000E+00
-0.9711229989523E-01 -0.1260376958938E+01  0.0000000000000E+00
-0.6474153119507E-01 -0.1260376958938E+01  0.0000000000000E+00
-0.3237076249490E-01 -0.1260376958938E+01  0.0000000000000E+00
 0.6205262220726E-08 -0.1260376958938E+01  0.0000000000000E+00
 0.3237077490543E-01 -0.1260376958938E+01  0.0000000000000E+00
 0.6474154360559E-01 -0.1260376958938E+01  0.0000000000000E+00
 0.9711231230575E-01 -0.1260376958938E+01  0.0000000000000E+00
 0.1294830810059E+00 -0.1260376958938E+01  0.0000000000000E+00
 0.1618538497061E+00 -0.1260376958938E+01  0.0000000000000E+00
 0.1942246184062E+00 -0.1260376958938E+01  0.0000000000000E+00
 0.2265953871064E+00 -0.1260376958938E+01  0.0000000000000E+00
 0.2589661558066E+00 -0.1260376958938E+01  0.0000000000000E+00
 0.2913369245067E+00 -0.1260376958938E+01  0.0000000000000E+00
 0.3237076932069E+00 -0.1260376958938E+01  0.0000000000000E+00
 0.3560784619071E+00 -0.1260376958938E+01  0.0000000000000E+00
 0.3884492306072E+00 -0.1260376958938E+01  0.0000000000000E+00
 0.4208199993074E+00 -0.1260376958938E+01  0.0000000000000E+00
 0.4531907680076E+00 -0.1260376958938E+01  0.0000000000000E+00
 0.4855615367077E+00 -0.1260376958938E+01  0.0000000000000E+00
 0.5179323054079E+00 -0.1260376958938E+01  0.0000000000000E+00
 0.5503030741080E+00 -0.1260376958938E+01  0.0000000000000E+00
 0.5826738428082E+00 -0.1260376958938E+01  0.0000000000000E+00
 0.6150446115084E+00 -0.1260376958938E+01  0.0000000000000E+00
 0.6797861485984E+00 -0.1260376958938E+01  0.0000000000000E+00
 0.7121569169883E+00 -0.1260376958938E+01  0.0000000000000E+00
 0.7445276853782E+00 -0.1260376958938E+01  0.0000000000000E+00
 0.7768984537681E+00 -0.1260376958938E+01  0.0000000000000E+00
 0.8092692221580E+00 -0.1260376958938E+01  0.0000000000000E+00
 0.8416399905479E+00 -0.1260376958938E+01  0.0000000000000E+00
 0.8740107589378E+00 -0.1260376958938E+01  0.0000000000000E+00
 0.9063815273277E+00 -0.1260376958938E+01  0.0000000000000E+00
[...]
<PointData Vectors="'U'">
<DataArray type="Float64" Name="U" NumberOfComponents="2" ComponentName0="U1" ComponentName1="U2" format="ascii">
-0.1339284873902E-36 -0.3336932188348E-36
-0.2805882811333E-37 -0.2894617329481E-37
-0.1093690558347E-36  0.2730237140397E-36
-0.1913224167064E-01 -0.3653926916077E-01
-0.7137709836180E-02 -0.1768618740573E-01
 0.7137709942397E-02 -0.1768618748126E-01
 0.1913224161282E-01 -0.3653926912477E-01
-0.2823006116680E+00 -0.4233960893062E+00
 0.2823006154478E+00 -0.4233960849311E+00
-0.2808332743743E+00 -0.5970118217405E+00
 0.2808332741300E+00 -0.5970118217147E+00
 0.3959348613839E-37 -0.2143778131319E-36
 0.3198370005462E-37 -0.1829440019600E-36
 0.3123395216794E-37 -0.1687184499494E-36
 0.3120429675329E-37 -0.1600591413988E-36
 0.3093863983122E-37 -0.1537216649232E-36
 0.3034726076975E-37 -0.1485290023518E-36
 0.2948439414453E-37 -0.1439670334749E-36
 0.2841381642709E-37 -0.1397802806442E-36
 0.2718623670470E-37 -0.1358296025965E-36
 0.2583891814655E-37 -0.1320339543310E-36
 0.2439888477744E-37 -0.1283436802966E-36
 0.2288588797186E-37 -0.1247271455223E-36
 0.2131457907495E-37 -0.1211635653135E-36
 0.1969600686609E-37 -0.1176389403480E-36
 0.1803863703210E-37 -0.1141436452973E-36
 0.1634905048912E-37 -0.1106709432316E-36
 0.1463242836975E-37 -0.1072160405806E-36
 0.1289289453683E-37 -0.1037754691526E-36
 0.1113376171883E-37 -0.1003466721788E-36
 0.9357711388836E-38 -0.9692772105200E-37
 0.7566927304774E-38 -0.9351711774793E-37
 0.5763196058605E-38 -0.9011365463576E-37
 0.3947983777300E-38 -0.8671631331851E-37
 0.2122495266109E-38 -0.8332419059837E-37
 0.2877200581081E-39 -0.7993644346795E-37
-0.1555531447598E-38 -0.7655224765725E-37
-0.3406599448334E-38 -0.7317076594215E-37
-0.5264952101475E-38 -0.6979112354925E-37
-0.7130167524028E-38 -0.6641238875771E-37
-0.9001919475867E-38 -0.6303355732542E-37
-0.1087996600289E-37 -0.5965353973241E-37
-0.1276414048550E-37 -0.5627115049097E-37
-0.1465434466447E-37 -0.5288509895283E-37
-0.1655054331277E-37 -0.4949398117196E-37
-0.1845276029548E-37 -0.4609627247208E-37
-0.2036107581806E-37 -0.4269032043112E-37
-0.2227562470861E-37 -0.3927433803843E-37
-0.2419659561625E-37 -0.3584639680827E-37
-0.2612423103829E-37 -0.3240441964916E-37
-0.3000074013959E-37 -0.2546926009973E-37
-0.3195037879659E-37 -0.2197110899225E-37
-0.3390821706600E-37 -0.1844896535902E-37
-0.3587479286410E-37 -0.1489987960841E-37
-0.3785071341512E-37 -0.1132069412381E-37
-0.3983666041148E-37 -0.7708028270938E-38
-0.4183339602552E-37 -0.4058261062925E-38
-0.4384176985704E-37 -0.3675110108805E-39
-0.4586272692373E-37  0.3368387408548E-38
-0.4789731682738E-37  0.7153911358803E-38
-0.4994670425891E-37  0.1099388216650E-37
-0.5201218104076E-37  0.1489350380276E-37
-0.5409517994714E-37  0.1885840861514E-37
-0.5619729059222E-37  0.2289471192751E-37
-0.5832027773516E-37  0.2700907754731E-37
-0.6046610241956E-37  0.3120879677355E-37
-0.6263694644426E-37  0.3550188423124E-37
-0.6483524075141E-37  0.3989719483691E-37
-0.6706369841254E-37  0.4440456752077E-37
-0.6932535298439E-37  0.4903500313389E-37
-0.7162360306886E-37  0.5380088643290E-37
-0.7396226393654E-37  0.5871626566226E-37
-0.7634562687404E-37  0.6379720781439E-37
-0.7877852654322E-37  0.6906225519856E-37
-0.8126641556757E-37  0.7453301888717E-37
-0.8381544342385E-37  0.8023495993983E-37
-0.8643253241941E-37  0.8619843203545E-37
-0.8912543518571E-37  0.9246009365665E-37
-0.9190274215679E-37  0.9906485087976E-37
-0.9477377740024E-37  0.1060685733036E-36
-0.9774826544343E-37  0.1135419501025E-36
-0.1008355523092E-36  0.1215760360181E-36
-0.1040430020741E-36  0.1302902729224E-36
-0.1073729973016E-36  0.1398439337586E-36
-0.1108181123717E-36  0.1504513240455E-36
-0.1143567048388E-36  0.1623963493362E-36
-0.1179689620369E-36  0.1760165549778E-36
-0.1218045519620E-36  0.1914864449428E-36
-0.1274030494427E-36  0.2073413641593E-36
-0.1775973503143E-01 -0.3251189267900E-01
-0.1668781892650E-01 -0.2993570372810E-01
-0.1576667551163E-01 -0.2806662877605E-01
-0.1496508902098E-01 -0.2659799716671E-01
-0.1425204441226E-01 -0.2538930372649E-01
-0.1360470495030E-01 -0.2436423296165E-01
-0.1300686823155E-01 -0.2347723770931E-01
-0.1244726322454E-01 -0.2269893319879E-01
-0.1191798503143E-01 -0.2200913128579E-01
-0.1141337465461E-01 -0.2139322848819E-01
-0.1092926941296E-01 -0.2084021425320E-01
-0.1046251696356E-01 -0.2034150889234E-01
-0.1001066244624E-01 -0.1989025004866E-01
-0.9571746216794E-02 -0.1948083368062E-01
-0.9144171954362E-02 -0.1910860619401E-01
-0.8726620506089E-02 -0.1876965006449E-01
-0.8317995282119E-02 -0.1846062885320E-01
-0.7917393862723E-02 -0.1817866974051E-01
-0.7524104675655E-02 -0.1792125868329E-01
-0.6756771215953E-02 -0.1747174772889E-01
-0.6380114328023E-02 -0.1727575750125E-01
-0.6007417452205E-02 -0.1709694381299E-01
-0.5638333442055E-02 -0.1693405688720E-01
-0.5272520103985E-02 -0.1678594464496E-01
-0.4909648809945E-02 -0.1665156693891E-01
-0.4549410140932E-02 -0.1652999153805E-01
-0.4191516071229E-02 -0.1642038616881E-01
-0.3835700161757E-02 -0.1632200998835E-01
-0.3481716651106E-02 -0.1623420567614E-01
-0.3129338971288E-02 -0.1615639247190E-01
-0.2778358004365E-02 -0.1608806018554E-01
-0.2428580235991E-02 -0.1602876411426E-01
-0.2079825891567E-02 -0.1597812076740E-01
-0.1731927094793E-02 -0.1593580430369E-01
-0.1384726066062E-02 -0.1590154359911E-01
-0.1038073362593E-02 -0.1587511987503E-01
-0.6918261591520E-03 -0.1585636482914E-01
-0.3458465627841E-03 -0.1584515922537E-01
 0.4614005011394E-10 -0.1584143190953E-01
 0.3458466550872E-03 -0.1584515922773E-01
 0.6918262515245E-03 -0.1585636483388E-01
 0.1038073455082E-02 -0.1587511988218E-01
 0.1384726158717E-02 -0.1590154360873E-01
 0.1731927187664E-02 -0.1593580431585E-01
 0.2079825984710E-02 -0.1597812078219E-01
 0.2428580329463E-02 -0.1602876413180E-01
 0.2778358098227E-02 -0.1608806020595E-01
 0.3129339065608E-02 -0.1615639249534E-01
 0.3481716745957E-02 -0.1623420570279E-01
 0.3835700257219E-02 -0.1632201001840E-01
 0.4191516167390E-02 -0.1642038620251E-01
 0.4549410237888E-02 -0.1652999157565E-01
 0.4909648907801E-02 -0.1665156698070E-01
 0.5272520202860E-02 -0.1678594469128E-01
 0.5638333542078E-02 -0.1693405693841E-01
 0.6007417553519E-02 -0.1709694386952E-01
 0.6380114430787E-02 -0.1727575756356E-01
 0.6756771320342E-02 -0.1747174779752E-01
 0.7524104776475E-02 -0.1792125876168E-01
 0.7917393958119E-02 -0.1817866982162E-01
 0.8317995372071E-02 -0.1846062893688E-01
 0.8726620590570E-02 -0.1876965015057E-01
 0.9144172033335E-02 -0.1910860628226E-01
 0.9571746290207E-02 -0.1948083377080E-01
 0.1001066251402E-01 -0.1989025014045E-01
 0.1046251702563E-01 -0.2034150898539E-01
 0.1092926946921E-01 -0.2084021434708E-01
 0.1141337470491E-01 -0.2139322858238E-01
 0.1191798507562E-01 -0.2200913137968E-01
 0.1244726326243E-01 -0.2269893329165E-01
 0.1300686826288E-01 -0.2347723780027E-01
 0.1360470497472E-01 -0.2436423304963E-01
 0.1425204442923E-01 -0.2538930381016E-01
 0.1496508902955E-01 -0.2659799724428E-01
 0.1576667551009E-01 -0.2806662884478E-01
 0.1668781891176E-01 -0.2993570378313E-01
 0.1775973499894E-01 -0.3251189270869E-01
-0.1503634153797E+00 -0.9953685763999E-01
-0.2252486442243E+00 -0.1504212147512E+00
-0.2822599993881E+00 -0.1839856181020E+00
-0.3272095163306E+00 -0.2097852053058E+00
-0.3634166173696E+00 -0.2307660094051E+00
-0.3926663147153E+00 -0.2483991481764E+00
-0.4160508283982E+00 -0.2633735499015E+00
-0.4342654007954E+00 -0.2760894583485E+00
-0.4477298855303E+00 -0.2867516800543E+00
-0.4566411915912E+00 -0.2954671765038E+00
-0.4610649701773E+00 -0.3023236702945E+00
-0.4610947907165E+00 -0.3073222893396E+00
-0.4561253890591E+00 -0.3109159788225E+00
-0.4457603840535E+00 -0.3146440324508E+00
-0.4302094768523E+00 -0.3202207215373E+00
-0.4098133463447E+00 -0.3292756834615E+00
-0.3848833403654E+00 -0.3429322813302E+00
-0.3554150533108E+00 -0.3620252648030E+00
-0.3212214970055E+00 -0.3878965860254E+00
-0.2611336775801E+00 -0.4466429760415E+00
-0.2390280936667E+00 -0.4740792398793E+00
-0.2156985661902E+00 -0.5069446972407E+00
-0.1901042991560E+00 -0.5475769555464E+00
-0.1621408722256E+00 -0.5967173500170E+00
-0.1337316332873E+00 -0.6515289784369E+00
-0.1064440757590E+00 -0.7089231355341E+00
-0.8069160365237E-01 -0.7668912098233E+00
-0.5667485330010E-01 -0.8239989379969E+00
-0.3557977180229E-01 -0.8794987608595E+00
-0.1823250498624E-01 -0.9326319485729E+00
-0.4832288782592E-02 -0.9825544341329E+00
 0.4775434006600E-02 -0.1028457820967E+01
 0.1091899488640E-01 -0.1069627940920E+01
 0.1400693827864E-01 -0.1105461019498E+01
 0.1448540929034E-01 -0.1135455692677E+01
 0.1282288842496E-01 -0.1159211261350E+01
 0.9507139118970E-02 -0.1176416220104E+01
 0.5050355288857E-02 -0.1186842819790E+01
-0.7633795817696E-09 -0.1190340384551E+01
-0.5050356750520E-02 -0.1186842818370E+01
-0.9507140392850E-02 -0.1176416217288E+01
-0.1282288939755E-01 -0.1159211257175E+01
-0.1448540985558E-01 -0.1135455687203E+01
-0.1400693833780E-01 -0.1105461012797E+01
-0.1091899434696E-01 -0.1069627933076E+01
-0.4775432789372E-02 -0.1028457812110E+01
 0.4832290744998E-02 -0.9825544243867E+00
 0.1823250773426E-01 -0.9326319380840E+00
 0.3557977532519E-01 -0.8794987497938E+00
 0.5667485749830E-01 -0.8239989265220E+00
 0.8069160830082E-01 -0.7668911980779E+00
 0.1064440807250E+00 -0.7089231237359E+00
 0.1337316385533E+00 -0.6515289669393E+00
 0.1621408776377E+00 -0.5967173392900E+00
 0.1901043042331E+00 -0.5475769464050E+00
 0.2156985707296E+00 -0.5069446899108E+00
 0.2390280979039E+00 -0.4740792338182E+00
 0.2611336815832E+00 -0.4466429709192E+00
 0.3212215001527E+00 -0.3878965829586E+00
 0.3554150558761E+00 -0.3620252626495E+00
 0.3848833424002E+00 -0.3429322798439E+00
 0.4098133478929E+00 -0.3292756824728E+00
 0.4302094779428E+00 -0.3202207209157E+00
 0.4457603847109E+00 -0.3146440320560E+00
 0.4561253893117E+00 -0.3109159785241E+00
 0.4610947906217E+00 -0.3073222890190E+00
 0.4610649698356E+00 -0.3023236699003E+00
 0.4566411910538E+00 -0.2954671760546E+00
 0.4477298848384E+00 -0.2867516795670E+00
 0.4342653999930E+00 -0.2760894578407E+00
 0.4160508275232E+00 -0.2633735493912E+00
 0.3926663138020E+00 -0.2483991476790E+00
 0.3634166164538E+00 -0.2307660089368E+00
 0.3272095154494E+00 -0.2097852048832E+00
 0.2822599985849E+00 -0.1839856177432E+00
 0.2252486435511E+00 -0.1504212144828E+00
 0.1503634148982E+00 -0.9953685752165E-01
-0.3932613081866E-03 -0.6950161664344E-03
-0.6352143972998E-03 -0.1194233435009E-02
-0.8191903377899E-03 -0.1661893876254E-02
-0.9617961251182E-03 -0.2111436873780E-02
-0.1073889278120E-02 -0.2552079770985E-02
-0.1161189630051E-02 -0.2988631835653E-02
-0.1227852826275E-02 -0.3424076831369E-02
-0.1276822867814E-02 -0.3860509294000E-02
-0.1310363158740E-02 -0.4299528678890E-02
-0.1330254305051E-02 -0.4742481035362E-02
-0.1337944338006E-02 -0.5190599643758E-02
-0.1334642637376E-02 -0.5645118957733E-02
-0.1321389276311E-02 -0.6107367251132E-02
-0.1299110149057E-02 -0.6578877275344E-02
-0.1268642426581E-02 -0.7061577078836E-02
-0.1230966402320E-02 -0.7558454623562E-02
-0.1187999555141E-02 -0.8073130115922E-02
-0.1142581889669E-02 -0.8607369115741E-02
-0.1097271162732E-02 -0.9161024837473E-02
-0.1054123358689E-02 -0.9734034397772E-02
-0.1015105024841E-02 -0.1032714399463E-01
-0.9824273553939E-03 -0.1094195087944E-01
-0.9587572265908E-03 -0.1158074625593E-01
-0.9473639447159E-03 -0.1224641943387E-01
-0.9522597146186E-03 -0.1294239749302E-01
-0.9783799965520E-03 -0.1367255913678E-01
-0.1031723140880E-02 -0.1444085419168E-01
-0.1119194145493E-02 -0.1525120850957E-01
-0.1248647929579E-02 -0.1610835271105E-01
-0.1429434464220E-02 -0.1701835090240E-01
-0.1672943161230E-02 -0.1798859594488E-01
-0.1993214730037E-02 -0.1902812624450E-01
-0.2407928989789E-02 -0.2014814140564E-01
-0.2939898499129E-02 -0.2136242312984E-01
-0.3619369762440E-02 -0.2268699579054E-01
-0.4485806878154E-02 -0.2413824940128E-01
-0.5594679857599E-02 -0.2573823841774E-01
-0.7025671927950E-02 -0.2754569657722E-01
-0.8984548127323E-02 -0.2966610365109E-01
-0.1168732074348E-01 -0.3257115548999E-01
 0.1168732069641E-01 -0.3257115545465E-01
 0.8984548086472E-02 -0.2966610361908E-01
 0.7025671889885E-02 -0.2754569654826E-01
 0.5594679821740E-02 -0.2573823839045E-01
 0.4485806844212E-02 -0.2413824937546E-01
 0.3619369730225E-02 -0.2268699576597E-01
 0.2939898468518E-02 -0.2136242310637E-01
 0.2407928960692E-02 -0.2014814138316E-01
 0.1993214702386E-02 -0.1902812622291E-01
 0.1672943134975E-02 -0.1798859592409E-01
 0.1429434439319E-02 -0.1701835088237E-01
 0.1248647905998E-02 -0.1610835269173E-01
 0.1119194123200E-02 -0.1525120849093E-01
 0.1031723119845E-02 -0.1444085417371E-01
 0.9783799767439E-03 -0.1367255911945E-01
 0.9522596960074E-03 -0.1294239747632E-01
 0.9473639272706E-03 -0.1224641941779E-01
 0.9587572102801E-03 -0.1158074624046E-01
 0.9824273401855E-03 -0.1094195086458E-01
 0.1015105010701E-02 -0.1032714398039E-01
 0.1054123345584E-02 -0.9734034384135E-02
 0.1097271150624E-02 -0.9161024824439E-02
 0.1142581878522E-02 -0.8607369103308E-02
 0.1187999544918E-02 -0.8073130104089E-02
 0.1230966392981E-02 -0.7558454612329E-02
 0.1268642418090E-02 -0.7061577068208E-02
 0.1299110141373E-02 -0.6578877265329E-02
 0.1321389269396E-02 -0.6107367241738E-02
 0.1334642631191E-02 -0.5645118948970E-02
 0.1337944332511E-02 -0.5190599635635E-02
 0.1330254300205E-02 -0.4742481027889E-02
 0.1310363154504E-02 -0.4299528672077E-02
 0.1276822864147E-02 -0.3860509287857E-02
 0.1227852823137E-02 -0.3424076825907E-02
 0.1161189627405E-02 -0.2988631830882E-02
 0.1073889275930E-02 -0.2552079766917E-02
 0.9617961233534E-03 -0.2111436870429E-02
 0.8191903364247E-03 -0.1661893873637E-02
 0.6352143963251E-03 -0.1194233433152E-02
 0.3932613076104E-03 -0.6950161653763E-03
-0.2698459044784E+00 -0.6102791778925E+00
-0.2584850231064E+00 -0.6233827517670E+00
-0.2467161326265E+00 -0.6362231949961E+00
-0.2345410394427E+00 -0.6487291265404E+00
-0.2219694400253E+00 -0.6608338028164E+00
-0.2090156034522E+00 -0.6724739916039E+00
-0.1956969149746E+00 -0.6835894869916E+00
-0.1820330475916E+00 -0.6941235734875E+00
-0.1680454945142E+00 -0.7040233542412E+00
-0.1537569724977E+00 -0.7132395827755E+00
-0.1391913078869E+00 -0.7217255622438E+00
-0.1243734086721E+00 -0.7294378468163E+00
-0.1093291826040E+00 -0.7363370051324E+00
-0.9408539071665E-01 -0.7423879615662E+00
-0.7866948917768E-01 -0.7475601460834E+00
-0.6310946539869E-01 -0.7518275755890E+00
-0.4743371420958E-01 -0.7551689136065E+00
-0.3167092917101E-01 -0.7575675107260E+00
-0.1585001296216E-01 -0.7590114440475E+00
-0.1188833476107E-09 -0.7594935497224E+00
 0.1585001272430E-01 -0.7590114440465E+00
 0.3167092893290E-01 -0.7575675107240E+00
 0.4743371397105E-01 -0.7551689136035E+00
 0.6310946515958E-01 -0.7518275755850E+00
 0.7866948893788E-01 -0.7475601460782E+00
 0.9408539047605E-01 -0.7423879615598E+00
 0.1093291823626E+00 -0.7363370051248E+00
 0.1243734084297E+00 -0.7294378468073E+00
 0.1391913076437E+00 -0.7217255622335E+00
 0.1537569722538E+00 -0.7132395827638E+00
 0.1680454942696E+00 -0.7040233542280E+00
 0.1820330473465E+00 -0.6941235734727E+00
 0.1956969147290E+00 -0.6835894869747E+00
 0.2090156032063E+00 -0.6724739915847E+00
 0.2219694397792E+00 -0.6608338027950E+00
 0.2345410391967E+00 -0.6487291265170E+00
 0.2467161323808E+00 -0.6362231949710E+00
 0.2584850228612E+00 -0.6233827517409E+00
 0.2698459042337E+00 -0.6102791778659E+00
-0.2791205883245E+00 -0.5584673119316E+00
-0.2761397547412E+00 -0.5197855248587E+00
-0.2722380587539E+00 -0.4810436496420E+00
-0.2676873018650E+00 -0.4424860665433E+00
-0.2626475894514E+00 -0.4043458809743E+00
-0.2571775684324E+00 -0.3668477526174E+00
-0.2512332341695E+00 -0.3302169299991E+00
-0.2446592625947E+00 -0.2946768922127E+00
-0.2371622956423E+00 -0.2604413370083E+00
-0.2283282450050E+00 -0.2276923139447E+00
-0.2176844068685E+00 -0.1965601177691E+00
-0.2047769472965E+00 -0.1671465272977E+00
-0.1892677140886E+00 -0.1395683387039E+00
-0.1709686636285E+00 -0.1139924124013E+00
-0.1498274787446E+00 -0.9065000335353E-01
-0.1259050248263E+00 -0.6983035820916E-01
-0.9936526460277E-01 -0.5185599125169E-01
-0.7047437132328E-01 -0.3704005398198E-01
-0.3959475753549E-01 -0.2562334001377E-01
 0.2791205881000E+00 -0.5584673118936E+00
 0.2761397545341E+00 -0.5197855248051E+00
 0.2722380585673E+00 -0.4810436495695E+00
 0.2676873017051E+00 -0.4424860664490E+00
 0.2626475893282E+00 -0.4043458808559E+00
 0.2571775683607E+00 -0.3668477524740E+00
 0.2512332341703E+00 -0.3302169298320E+00
 0.2446592626964E+00 -0.2946768920271E+00
 0.2371622958793E+00 -0.2604413368146E+00
 0.2283282454151E+00 -0.2276923137570E+00
 0.2176844074836E+00 -0.1965601176027E+00
 0.2047769481323E+00 -0.1671465271657E+00
 0.1892677151365E+00 -0.1395683386138E+00
 0.1709686648512E+00 -0.1139924123536E+00
 0.1498274800747E+00 -0.9065000334273E-01
 0.1259050261683E+00 -0.6983035822593E-01
 0.9936526583749E-01 -0.5185599128686E-01
 0.7047437231519E-01 -0.3704005403036E-01
 0.3959475814581E-01 -0.2562334007551E-01
-0.2920787247081E+00 -0.5987899225232E+00
-0.3026483026967E+00 -0.5993422937059E+00
-0.3124130514782E+00 -0.5986645024617E+00
-0.3212839461432E+00 -0.5967498893207E+00
-0.3291793863226E+00 -0.5935833997782E+00
-0.3360183634616E+00 -0.5891527934918E+00
-0.3417186514646E+00 -0.5834523678199E+00
-0.3461966641029E+00 -0.5764860541237E+00
-0.3493680668815E+00 -0.5682700998450E+00
-0.3511489365426E+00 -0.5588359237046E+00
-0.3514575430032E+00 -0.5482333758253E+00
-0.3502169883520E+00 -0.5365345803615E+00
-0.3473590873937E+00 -0.5238384819739E+00
-0.3428300574569E+00 -0.5102761566891E+00
-0.3365988016433E+00 -0.4960167838034E+00
-0.3286688822651E+00 -0.4812738975038E+00
-0.3190950520095E+00 -0.4663102406490E+00
-0.3080060707012E+00 -0.4514393425615E+00
-0.2956204144336E+00 -0.4370051989137E+00
 0.2920787246265E+00 -0.5987899221449E+00
 0.3026483027701E+00 -0.5993422929688E+00
 0.3124130516989E+00 -0.5986645013610E+00
 0.3212839465043E+00 -0.5967498878538E+00
 0.3291793868179E+00 -0.5935833979454E+00
 0.3360183640856E+00 -0.5891527912966E+00
 0.3417186522131E+00 -0.5834523652698E+00
 0.3461966649731E+00 -0.5764860512303E+00
 0.3493680678729E+00 -0.5682700966248E+00
 0.3511489376574E+00 -0.5588359201791E+00
 0.3514575442473E+00 -0.5482333720219E+00
 0.3502169897359E+00 -0.5365345763136E+00
 0.3473590889339E+00 -0.5238384777213E+00
 0.3428300591773E+00 -0.5102761522774E+00
 0.3365988035765E+00 -0.4960167792836E+00
 0.3286688844540E+00 -0.4812738929298E+00
 0.3190950545072E+00 -0.4663102360746E+00
 0.3080060735689E+00 -0.4514393380330E+00
 0.2956204177336E+00 -0.4370051944608E+00
-0.3314809622025E-03 -0.5856638560940E-03
-0.5917356582132E-03 -0.1123454143536E-02
-0.7756061286072E-03 -0.1604207416794E-02
-0.9199357925206E-03 -0.2065679126447E-02
-0.1032546936980E-02 -0.2515770187694E-02
-0.1120145642220E-02 -0.2960253670077E-02
-0.1186837762069E-02 -0.3402484532469E-02
-0.1235669494840E-02 -0.3844821009824E-02
-0.1268929754046E-02 -0.4289040599778E-02
-0.1288419000569E-02 -0.4736614230347E-02
-0.1295590779326E-02 -0.5188863401836E-02
-0.1291651449137E-02 -0.5647082841442E-02
-0.1277628983536E-02 -0.6112636724857E-02
-0.1254425547883E-02 -0.6587067503842E-02
-0.1222834691979E-02 -0.7072281179124E-02
-0.1183797885900E-02 -0.7570680953203E-02
-0.1139268236017E-02 -0.8084677511956E-02
-0.1092193337332E-02 -0.8615779046414E-02
-0.1045201353750E-02 -0.9164595228441E-02
-0.1000336035100E-02 -0.9731581644904E-02
-0.9595160940464E-03 -0.1031760002246E-01
-0.9249035782786E-03 -0.1092409366745E-01
-0.8991268207016E-03 -0.1155303883398E-01
-0.8854303944919E-03 -0.1220689319679E-01
-0.8878184484785E-03 -0.1288853613537E-01
-0.9112466832770E-03 -0.1360116092265E-01
-0.9617392277433E-03 -0.1434817437936E-01
-0.1046187622099E-02 -0.1513317222078E-01
-0.1172425008162E-02 -0.1596018400761E-01
-0.1349809333618E-02 -0.1683405708112E-01
-0.1589765888089E-02 -0.1776060754749E-01
-0.1906412884860E-02 -0.1874678339208E-01
-0.2317551247429E-02 -0.1980098693195E-01
-0.2846188491662E-02 -0.2093341000106E-01