<VTKFile type="UnstructuredGrid" version="1,0" byte_order="LittleEndian">
<UnstructuredGrid>
<Piece NumberOfPoints="5802" NumberOfCells="5680">
<Points>
<DataArray type="Float64" NumberOfComponents="3" format="ascii">
-0.1100000000000E+01 -0.4260376958938E+01  0.0000000000000E+00
 0.0000000000000E+00 -0.4260376958938E+01  0.0000000000000E+00
 0.1100000000000E+01 -0.4260376958938E+01  0.0000000000000E+00
-0.1294830748007E+01 -0.1260376958938E+01  0.0000000000000E+00
-0.6474153677980E+00 -0.1260376958938E+01  0.0000000000000E+00
 0.6474153802085E+00 -0.1260376958938E+01  0.0000000000000E+00
 0.1294830748007E+01 -0.1260376958938E+01  0.0000000000000E+00
-0.1038349899718E+01  0.8622996231128E+00  0.0000000000000E+00
 0.1038349908233E+01  0.8622996153791E+00  0.0000000000000E+00
-0.5250000000000E+00  0.3489497150362E+00  0.0000000000000E+00
 0.5250000000000E+00  0.3489497150362E+00  0.0000000000000E+00
-0.1072500000000E+01 -0.4260376958938E+01  0.0000000000000E+00
-0.1045000000000E+01 -0.4260376958938E+01  0.0000000000000E+00
-0.1017500000000E+01 -0.4260376958938E+01  0.0000000000000E+00
-0.9900000000000E+00 -0.4260376958938E+01  0.0000000000000E+00
-0.9625000000000E+00 -0.4260376958938E+01  0.0000000000000E+00
-0.9350000000000E+00 -0.4260376958938E+01  0.0000000000000E+00
-0.9075000000000E+00 -0.4260376958938E+01  0.0000000000000E+00
-0.8800000000000E+00 -0.4260376958938E+01  0.0000000000000E+00
-0.8525000000000E+00 -0.4260376958938E+01  0.0000000000000E+00
-0.8250000000000E+00 -0.4260376958938E+01  0.0000000000000E+00
-0.7975000000000E+00 -0.4260376958938E+01  0.0000000000000E+00
-0.7700000000000E+00 -0.4260376958938E+01  0.0000000000000E+00
-0.7425000000000E+00 -0.4260376958938E+01  0.0000000000000E+00
-0.7150000000000E+00 -0.4260376958938E+01  0.0000000000000E+00
-0.6875000000000E+00 -0.4260376958938E+01  0.0000000000000E+00
-0.6600000000000E+00 -0.4260376958938E+01  0.0000000000000E+00
-0.6325000000000E+00 -0.4260376958938E+01  0.0000000000000E+00
-0.6050000000000E+00 -0.4260376958938E+01  0.0000000000000E+00
-0.5775000000000E+00 -0.4260376958938E+01  0.0000000000000E+00
-0.5500000000000E+00 -0.4260376958938E+01  0.0000000000000E+00
-0.5225000000000E+00 -0.4260376958938E+01  0.0000000000000E+00
-0.4950000000000E+00 -0.4260376958938E+01  0.0000000000000E+00
-0.4675000000000E+00 -0.4260376958938E+01  0.0000000000000E+00
-0.4400000000000E+00 -0.4260376958938E+01  0.0000000000000E+00
-0.4125000000000E+00 -0.4260376958938E+01  0.0000000000000E+00
-0.3850000000000E+00 -0.4260376958938E+01  0.0000000000000E+00
-0.3575000000000E+00 -0.4260376958938E+01  0.0000000000000E+00
-0.3300000000000E+00 -0.4260376958938E+01  0.0000000000000E+00
-0.3025000000000E+00 -0.4260376958938E+01  0.0000000000000E+00
-0.2750000000000E+00 -0.4260376958938E+01  0.0000000000000E+00
-0.2475000000000E+00 -0.4260376958938E+01  0.0000000000000E+00
-0.2200000000000E+00 -0.4260376958938E+01  0.0000000000000E+00
-0.1925000000000E+00 -0.4260376958938E+01  0.0000000000000E+00
-0.1650000000000E+00 -0.4260376958938E+01  0.0000000000000E+00
-0.1375000000000E+00 -0.4260376958938E+01  0.0000000000000E+00
-0.1100000000000E+00 -0.4260376958938E+01  0.0000000000000E+00
-0.8250000000000E-01 -0.4260376958938E+01  0.0000000000000E+00
-0.5500000000000E-01 -0.4260376958938E+01  0.0000000000000E+00
-0.2750000000000E-01 -0.4260376958938E+01  0.0000000000000E+00
 0.2750000000000E-01 -0.4260376958938E+01  0.0000000000000E+00
 0.5500000000000E-01 -0.4260376958938E+01  0.0000000000000E+00
 0.8250000000000E-01 -0.4260376958938E+01  0.0000000000000E+00
 0.1100000000000E+00 -0.4260376958938E+01  0.0000000000000E+00
 0.1375000000000E+00 -0.4260376958938E+01  0.0000000000000E+00
 0.1650000000000E+00 -0.4260376958938E+01  0.0000000000000E+00
 0.1925000000000E+00 -0.4260376958938E+01  0.0000000000000E+00
 0.2200000000000E+00 -0.4260376958938E+01  0.0000000000000E+00
 0.2475000000000E+00 -0.4260376958938E+01  0.0000000000000E+00
 0.2750000000000E+00 -0.4260376958938E+01  0.0000000000000E+00
 0.3025000000000E+00 -0.4260376958938E+01  0.0000000000000E+00
 0.3300000000000E+00 -0.4260376958938E+01  0.0000000000000E+00
 0.3575000000000E+00 -0.4260376958938E+01  0.0000000000000E+00
 0.3850000000000E+00 -0.4260376958938E+01  0.0000000000000E+00
 0.4125000000000E+00 -0.4260376958938E+01  0.0000000000000E+00
 0.4400000000000E+00 -0.4260376958938E+01  0.0000000000000E+00
 0.4675000000000E+00 -0.4260376958938E+01  0.0000000000000E+00
 0.4950000000000E+00 -0.4260376958938E+01  0.0000000000000E+00
 0.5225000000000E+00 -0.4260376958938E+01  0.0000000000000E+00
 0.5500000000000E+00 -0.4260376958938E+01  0.0000000000000E+00
 0.5775000000000E+00 -0.4260376958938E+01  0.0000000000000E+00
 0.6050000000000E+00 -0.4260376958938E+01  0.0000000000000E+00
 0.6325000000000E+00 -0.4260376958938E+01  0.0000000000000E+00
 0.6600000000000E+00 -0.4260376958938E+01  0.0000000000000E+00
 0.6875000000000E+00 -0.4260376958938E+01  0.0000000000000E+00
 0.7150000000000E+00 -0.4260376958938E+01  0.0000000000000E+00
 0.7425000000000E+00 -0.4260376958938E+01  0.0000000000000E+00
 0.7700000000000E+00 -0.4260376958938E+01  0.0000000000000E+00
 0.7975000000000E+00 -0.4260376958938E+01  0.0000000000000E+00
 0.8250000000000E+00 -0.4260376958938E+01  0.0000000000000E+00
 0.8525000000000E+00 -0.4260376958938E+01  0.0000000000000E+00
 0.8800000000000E+00 -0.4260376958938E+01  0.0000000000000E+00
 0.9075000000000E+00 -0.4260376958938E+01  0.0000000000000E+00
 0.9350000000000E+00 -0.4260376958938E+01  0.0000000000000E+00
 0.9625000000000E+00 -0.4260376958938E+01  0.0000000000000E+00
 0.9900000000000E+00 -0.4260376958938E+01  0.0000000000000E+00
 0.1017500000000E+01 -0.4260376958938E+01  0.0000000000000E+00
 0.1045000000000E+01 -0.4260376958938E+01  0.0000000000000E+00
 0.1072500000000E+01 -0.4260376958938E+01  0.0000000000000E+00
-0.1262459978996E+01 -0.1260376958938E+01  0.0000000000000E+00
-0.1230089209986E+01 -0.1260376958938E+01  0.0000000000000E+00
-0.1197718440975E+01 -0.1260376958938E+01  0.0000000000000E+00
-0.1165347671965E+01 -0.1260376958938E+01  0.0000000000000E+00
-0.1132976902954E+01 -0.1260376958938E+01  0.0000000000000E+00
-0.1100606133944E+01 -0.1260376958938E+01  0.0000000000000E+00
-0.1068235364934E+01 -0.1260376958938E+01  0.0000000000000E+00
-0.1035864595923E+01 -0.1260376958938E+01  0.0000000000000E+00
-0.1003493826913E+01 -0.1260376958938E+01  0.0000000000000E+00
-0.9711230579023E+00 -0.1260376958938E+01  0.0000000000000E+00
-0.9387522888919E+00 -0.1260376958938E+01  0.0000000000000E+00
-0.9063815198814E+00 -0.1260376958938E+01  0.0000000000000E+00
-0.8740107508710E+00 -0.1260376958938E+01  0.0000000000000E+00
-0.8416399818606E+00 -0.1260376958938E+01  0.0000000000000E+00
-0.8092692128501E+00 -0.1260376958938E+01  0.0000000000000E+00
-0.7768984438397E+00 -0.1260376958938E+01  0.0000000000000E+00
-0.7445276748293E+00 -0.1260376958938E+01  0.0000000000000E+00
-0.7121569058189E+00 -0.1260376958938E+01  0.0000000000000E+00
-0.6797861368084E+00 -0.1260376958938E+01  0.0000000000000E+00
-0.6150445990978E+00 -0.1260376958938E+01  0.0000000000000E+00
-0.5826738303977E+00 -0.1260376958938E+01  0.0000000000000E+00
-0.5503030616975E+00 -0.1260376958938E+01  0.0000000000000E+00
-0.5179322929974E+00 -0.1260376958938E+01  0.0000000000000E+00
-0.4855615242972E+00 -0.1260376958938E+01  0.0000000000000E+00
-0.4531907555970E+00 -0.1260376958938E+01  0.0000000000000E+00
-0.4208199868969E+00 -0.1260376958938E+01  0.0000000000000E+00
-0.3884492181967E+00 -0.1260376958938E+01  0.0000000000000E+00
-0.3560784494965E+00 -0.1260376958938E+01  0.0000000000000E+00
-0.3237076807964E+00 -0.1260376958938E+01  0.0000000000000E+00
-0.2913369120962E+00 -0.1260376958938E+01  0.0000000000000E+00
-0.2589661433960E+00 -0.1260376958938E+01  0.0000000000000E+00
-0.2265953746959E+00 -0.1260376958938E+01  0.0000000000000E+00
-0.1942246059957E+00 -0.1260376958938E+01  0.0000000000000E+00
-0.1618538372956E+00 -0.1260376958938E+01  0.0000000000000E+00
-0.1294830685954E+00 -0.1260376958938E+01  0.0000000000000E+00
-0.9711229989523E-01 -0.1260376958938E+01  0.0000000000000E+00
-0.6474153119507E-01 -0.1260376958938E+01  0.0000000000000E+00
-0.3237076249490E-01 -0.1260376958938E+01  0.0000000000000E+00
 0.6205262220726E-08 -0.1260376958938E+01  0.0000000000000E+00
 0.3237077490543E-01 -0.1260376958938E+01  0.0000000000000E+00
 0.6474154360559E-01 -0.1260376958938E+01  0.0000000000000E+00
 0.9711231230575E-01 -0.1260376958938E+01  0.0000000000000E+00
 0.1294830810059E+00 -0.1260376958938E+01  0.0000000000000E+00
 0.1618538497061E+00 -0.1260376958938E+01  0.0000000000000E+00
 0.1942246184062E+00 -0.1260376958938E+01  0.0000000000000E+00
 0.2265953871064E+00 -0.1260376958938E+01  0.0000000000000E+00
 0.2589661558066E+00 -0.1260376958938E+01  0.0000000000000E+00
 0.2913369245067E+00 -0.1260376958938E+01  0.0000000000000E+00
 0.3237076932069E+00 -0.1260376958938E+01  0.0000000000000E+00
 0.3560784619071E+00 -0.1260376958938E+01  0.0000000000000E+00
 0.3884492306072E+00 -0.1260376958938E+01  0.0000000000000E+00
 0.4208199993074E+00 -0.1260376958938E+01  0.0000000000000E+00
 0.4531907680076E+00 -0.1260376958938E+01  0.0000000000000E+00
 0.4855615367077E+00 -0.1260376958938E+01  0.0000000000000E+00
 0.5179323054079E+00 -0.1260376958938E+01  0.0000000000000E+00
 0.5503030741080E+00 -0.1260376958938E+01  0.0000000000000E+00
 0.5826738428082E+00 -0.1260376958938E+01  0.0000000000000E+00
 0.6150446115084E+00 -0.1260376958938E+01  0.0000000000000E+00
 0.6797861485984E+00 -0.1260376958938E+01  0.0000000000000E+00
 0.7121569169883E+00 -0.1260376958938E+01  0.0000000000000E+00
 0.7445276853782E+00 -0.1260376958938E+01  0.0000000000000E+00
 0.7768984537681E+00 -0.1260376958938E+01  0.0000000000000E+00
 0.8092692221580E+00 -0.1260376958938E+01  0.0000000000000E+00
 0.8416399905479E+00 -0.1260376958938E+01  0.0000000000000E+00
 0.8740107589378E+00 -0.1260376958938E+01  0.0000000000000E+00
 0.9063815273277E+00 -0.1260376958938E+01  0.0000000000000E+00
[...]
<PointData Vectors="'U'">
<DataArray type="Float64" Name="U" NumberOfComponents="2" ComponentName0="U1" ComponentName1="U2" format="ascii">
-0.1093690557462E-36 -0.2730237138472E-36
-0.4627500900429E-37 -0.1509924980117E-37
-0.1339284873256E-36  0.3336932186404E-36
-0.1060675569696E+00 -0.8123451191229E-01
-0.9018062091728E-01 -0.3337631859288E-01
-0.8082790552657E-01  0.9420265055504E-02
-0.8085450141733E-01  0.3254874924655E-01
-0.1328953335772E+01 -0.3755756348619E+00
-0.1239795224864E+01 -0.3418854207785E+00
-0.1146380864715E+01 -0.3162187672579E+00
-0.9353278915048E+00 -0.4123640587102E+00
-0.8032946056295E-37 -0.4340542193099E-36
-0.8304320066451E-37 -0.3844337278777E-36
-0.7990465094738E-37 -0.3540870744789E-36
-0.7616103483906E-37 -0.3316684992130E-36
-0.7272538840691E-37 -0.3134444587970E-36
-0.6972259405954E-37 -0.2977910603724E-36
-0.6711927417662E-37 -0.2838646611474E-36
-0.6485626598551E-37 -0.2711738090700E-36
-0.6287817425294E-37 -0.2594087924907E-36
-0.6113879475561E-37 -0.2483628250004E-36
-0.5960072496129E-37 -0.2378915126635E-36
-0.5823381248537E-37 -0.2278903095492E-36
-0.5701362771763E-37 -0.2182812011792E-36
-0.5592021370870E-37 -0.2090044528125E-36
-0.5493711761535E-37 -0.2000132909940E-36
-0.5405065217228E-37 -0.1912703602123E-36
-0.5324933308087E-37 -0.1827452941387E-36
-0.5252344807663E-37 -0.1744130091590E-36
-0.5186472417313E-37 -0.1662524790072E-36
-0.5126606838225E-37 -0.1582458377012E-36
-0.5072136382598E-37 -0.1503777113871E-36
-0.5022530798261E-37 -0.1426347128450E-36
-0.4977328328449E-37 -0.1350050537282E-36
-0.4936125278839E-37 -0.1274782432175E-36
-0.4898567546621E-37 -0.1200448511157E-36
-0.4864343698455E-37 -0.1126963195873E-36
-0.4833179282027E-37 -0.1054248120585E-36
-0.4804832128512E-37 -0.9822309080773E-37
-0.4779088457591E-37 -0.9108441692168E-37
-0.4755759637898E-37 -0.8400246783240E-37
-0.4734679487134E-37 -0.7697126877819E-37
-0.4715702020330E-37 -0.6998513535731E-37
-0.4698699573567E-37 -0.6303862496094E-37
-0.4683561245217E-37 -0.5612649533402E-37
-0.4670191608506E-37 -0.4924366886116E-37
-0.4658509658582E-37 -0.4238520144080E-37
-0.4648447964897E-37 -0.3554625501140E-37
-0.4639952005975E-37 -0.2872207294735E-37
-0.4632979668909E-37 -0.2190795765708E-37
-0.4623497500302E-37 -0.8291308609032E-38
-0.4620963051437E-37 -0.1479492812340E-38
-0.4619902984377E-37  0.5340858265197E-38
-0.4620334777127E-37  0.1217444391790E-37
-0.4622288294584E-37  0.1902602203708E-37
-0.4625806275282E-37  0.2590043035842E-37
-0.4630944977000E-37  0.3280260952776E-37
-0.4637774997064E-37  0.3973762860825E-37
-0.4646382288148E-37  0.4671071375267E-37
-0.4656869396352E-37  0.5372728090012E-37
-0.4669356955429E-37  0.6079297353536E-37
-0.4683985479921E-37  0.6791370678538E-37
-0.4700917510872E-37  0.7509571944021E-37
-0.4720340181634E-37  0.8234563589835E-37
-0.4742468288850E-37  0.8967054058870E-37
-0.4767547976294E-37  0.9707806816268E-37
-0.4795861168540E-37  0.1045765137561E-36
-0.4827730929763E-37  0.1121749690010E-36
-0.4863527973636E-37  0.1198834913826E-36
-0.4903678617743E-37  0.1277133172320E-36
-0.4948674566456E-37  0.1356771324742E-36
-0.4999085030027E-37  0.1437894208798E-36
-0.5055571854896E-37  0.1520669176145E-36
-0.5118908572802E-37  0.1605292083854E-36
-0.5190004597404E-37  0.1691995331879E-36
-0.5269936240674E-37  0.1781058832496E-36
-0.5359986830014E-37  0.1872825272292E-36
-0.5461699014879E-37  0.1967721812130E-36
-0.5576943338016E-37  0.2066291710911E-36
-0.5708008063576E-37  0.2169241735391E-36
-0.5857715079239E-37  0.2277515620889E-36
-0.6029561826645E-37  0.2392412445715E-36
-0.6227867390937E-37  0.2515786692661E-36
-0.6457819031125E-37  0.2650407218934E-36
-0.6725012166881E-37  0.2800653608806E-36
-0.7032882756662E-37  0.2974017971436E-36
-0.7371154660866E-37  0.3184864917061E-36
-0.7660904515325E-37  0.3466073894797E-36
-0.7445439628023E-37  0.3917118415776E-36
-0.1041425173487E+00 -0.7458447341803E-01
-0.1026526040210E+00 -0.6993293246668E-01
-0.1013862291615E+00 -0.6625156661840E-01
-0.1002944678804E+00 -0.6311755634207E-01
-0.9933094006665E-01 -0.6033830017707E-01
-0.9846203849304E-01 -0.5781012689097E-01
-0.9766426182172E-01 -0.5547180775870E-01
-0.9692150219890E-01 -0.5328426922623E-01
-0.9622266398531E-01 -0.5122094214773E-01
-0.9555998260678E-01 -0.4926277646941E-01
-0.9492790618150E-01 -0.4739550485089E-01
-0.9432237117619E-01 -0.4560805476379E-01
-0.9374033503028E-01 -0.4389157953106E-01
-0.9317947231640E-01 -0.4223883940523E-01
-0.9263797459489E-01 -0.4064378986299E-01
-0.9211441704722E-01 -0.3910129790375E-01
-0.9160766989746E-01 -0.3760694024983E-01
-0.9111684507447E-01 -0.3615685609202E-01
-0.9064127160231E-01 -0.3474762702159E-01
-0.8973334626194E-01 -0.3204008117696E-01
-0.8929924886687E-01 -0.3073583488266E-01
-0.8887790609106E-01 -0.2946165308535E-01
-0.8846904496651E-01 -0.2821548590237E-01
-0.8807242978839E-01 -0.2699538980859E-01
-0.8768785131182E-01 -0.2579953087691E-01
-0.8731512116788E-01 -0.2462617899379E-01
-0.8695406913049E-01 -0.2347369812382E-01
-0.8660454071915E-01 -0.2234053647428E-01
-0.8626639492081E-01 -0.2122521743898E-01
-0.8593950199697E-01 -0.2012633161433E-01
-0.8562374142166E-01 -0.1904252989205E-01
-0.8531899997305E-01 -0.1797251754436E-01
-0.8502516998682E-01 -0.1691504918657E-01
-0.8474214776562E-01 -0.1586892450365E-01
-0.8446983213234E-01 -0.1483298463945E-01
-0.8420812311016E-01 -0.1380610915970E-01
-0.8395692071348E-01 -0.1278721351320E-01
-0.8371612383350E-01 -0.1177524692818E-01
-0.8348562920398E-01 -0.1076919069131E-01
-0.8326533043453E-01 -0.9768056765586E-02
-0.8305511710070E-01 -0.8770886711479E-02
-0.8285487388216E-01 -0.7776750881911E-02
-0.8266447974256E-01 -0.6784747867724E-02
-0.8248380714685E-01 -0.5794004175053E-02
-0.8231272131453E-01 -0.4803674120700E-02
-0.8215107951052E-01 -0.3812939935774E-02
-0.8199873037879E-01 -0.2821012071254E-02
-0.8185551333178E-01 -0.1827129704357E-02
-0.8172125801443E-01 -0.8305614479183E-03
-0.8159578387920E-01  0.1693937319995E-03
-0.8147889993377E-01  0.1173405380148E-02
-0.8137040477361E-01  0.2182110184592E-02
-0.8127008709798E-01  0.3196110380827E-02
-0.8117772710729E-01  0.4215971967274E-02
-0.8109309955711E-01  0.5242222897124E-02
-0.8101597993618E-01  0.6275351981843E-02
-0.8094615824706E-01  0.7315809285042E-02
-0.8088346230845E-01  0.8364021539921E-02
-0.8077810722172E-01  0.1048475860025E-01
-0.8073371236297E-01  0.1155813701232E-01
-0.8069452903289E-01  0.1264043325539E-01
-0.8066031176925E-01  0.1373175558226E-01
-0.8063078317996E-01  0.1483217788433E-01
-0.8060565521226E-01  0.1594172020918E-01
-0.8058464555578E-01  0.1706034066003E-01
-0.8056749450082E-01  0.1818793232115E-01
-0.8055398511595E-01  0.1932432368118E-01
-0.8054397023060E-01  0.2046928363695E-01
-0.8053741094193E-01  0.2162253422701E-01
-0.8053443395507E-01  0.2278377761361E-01
-0.8053541962916E-01  0.2395275050658E-01
-0.8054114014085E-01  0.2512933347907E-01
-0.8055297844045E-01  0.2631377466180E-01
-0.8057327291185E-01  0.2750716254648E-01
-0.8060583390320E-01  0.2871247823072E-01
-0.8065666278539E-01  0.2993708665092E-01
-0.8073439409842E-01  0.3119976498657E-01
-0.2877126726710E+00 -0.1714511681041E+00
-0.4000384713227E+00 -0.2478618594634E+00
-0.4952573652059E+00 -0.3002790363729E+00
-0.5800202455824E+00 -0.3408099176705E+00
-0.6577410992315E+00 -0.3732196447525E+00
-0.7300058201864E+00 -0.3995088543622E+00
-0.7976938205711E+00 -0.4207076846486E+00
-0.8613299171469E+00 -0.4375558773782E+00
-0.9212309267112E+00 -0.4505663099228E+00
-0.9775702305983E+00 -0.4600822193166E+00
-0.1030460346234E+01 -0.4664794589394E+00
-0.1080073417752E+01 -0.4702892107823E+00
-0.1126021686024E+01 -0.4697752116389E+00
-0.1167810553653E+01 -0.4640743166914E+00
-0.1205247422553E+01 -0.4540442606240E+00
-0.1238187777462E+01 -0.4406420514185E+00
-0.1266842506340E+01 -0.4251842019833E+00
-0.1291528698709E+01 -0.4088029980811E+00
-0.1312326297543E+01 -0.3921493516892E+00
-0.1335385470060E+01 -0.3675393287650E+00
-0.1340927950057E+01 -0.3598409421564E+00
-0.1345621688915E+01 -0.3526478841286E+00
-0.1349520906272E+01 -0.3460852601503E+00
-0.1352692299738E+01 -0.3402858345366E+00
-0.1355209033570E+01 -0.3353851179873E+00
-0.1357138393262E+01 -0.3315154371625E+00
-0.1358518377953E+01 -0.3287944927653E+00
-0.1359322257004E+01 -0.3273218028523E+00
-0.1359464889347E+01 -0.3272522645952E+00
-0.1358938345611E+01 -0.3288108505498E+00
-0.1357795938915E+01 -0.3322893210041E+00
-0.1356117317423E+01 -0.3380730570330E+00
-0.1354004453830E+01 -0.3467101398126E+00
-0.1351617659098E+01 -0.3590831393190E+00
-0.1349018149806E+01 -0.3770785507382E+00
-0.1346407272686E+01 -0.4015687216092E+00
-0.1344398722958E+01 -0.4303128475514E+00
-0.1343585020233E+01 -0.4606133606560E+00
-0.1344247250828E+01 -0.4908992559145E+00
-0.1346413431879E+01 -0.5200105576898E+00
-0.1349889305620E+01 -0.5470501540698E+00
-0.1354395891398E+01 -0.5713100815476E+00
-0.1359615712438E+01 -0.5922211000841E+00
-0.1365198977363E+01 -0.6093260711568E+00
-0.1370764272766E+01 -0.6222653191345E+00
-0.1375895785478E+01 -0.6307676883928E+00
-0.1380142198487E+01 -0.6346496030164E+00
-0.1383020751933E+01 -0.6338139021787E+00
-0.1384045331967E+01 -0.6282497818238E+00
-0.1382811993406E+01 -0.6180189307009E+00
-0.1379185874459E+01 -0.6032181848522E+00
-0.1373343712061E+01 -0.5839050702565E+00
-0.1365089275909E+01 -0.5600982744861E+00
-0.1353993659864E+01 -0.5319741218259E+00
-0.1339568019357E+01 -0.4998623213862E+00
-0.1321338125144E+01 -0.4642106947350E+00
-0.1298879745765E+01 -0.4255622372582E+00
-0.1271818753545E+01 -0.3845441062317E+00
-0.1161215004774E+01 -0.2584014948174E+00
-0.1066521578208E+01 -0.1773999958403E+00
-0.9617548895534E+00 -0.1027605586952E+00
-0.8564472077575E+00 -0.4062288257013E-01
-0.7619245056223E+00  0.3048274945675E-02
-0.6799590893200E+00  0.2980734967636E-01
-0.6062593450634E+00  0.4576713015254E-01
-0.5392990505705E+00  0.5441306963839E-01
-0.4777779461080E+00  0.5991350590066E-01
-0.4204991269124E+00  0.6511065269834E-01
-0.3670911217230E+00  0.6924168401846E-01
-0.3172718384033E+00  0.7199373981688E-01
-0.2709673561368E+00  0.7316892350190E-01
-0.2283222665483E+00  0.7254547035060E-01
-0.1896780919180E+00  0.6994905161306E-01
-0.1555773409662E+00  0.6530567914444E-01
-0.1268078042248E+00  0.5859770714054E-01
-0.1044038989524E+00  0.4999305476102E-01
-0.8952361110094E-01  0.4008487156360E-01
-0.1532898964852E-02 -0.2757927188688E-02
-0.2618081545113E-02 -0.4800409687213E-02
-0.3642413505860E-02 -0.6725379671378E-02
-0.4663217668297E-02 -0.8568963388073E-02
-0.5716452266103E-02 -0.1035821917571E-01
-0.6818200736179E-02 -0.1210568223992E-01
-0.7978953177825E-02 -0.1381821120818E-01
-0.9204904541435E-02 -0.1549996512438E-01
-0.1049994949000E-01 -0.1715358581113E-01
-0.1186637790814E-01 -0.1878090787803E-01
-0.1330537848680E-01 -0.2038333462224E-01
-0.1481735486333E-01 -0.2196212875972E-01
-0.1640212037920E-01 -0.2351861926861E-01
-0.1805904193405E-01 -0.2505444478876E-01
-0.1978711277213E-01 -0.2657199986843E-01
-0.2158557510017E-01 -0.2807624294395E-01
-0.2345600901937E-01 -0.2957698072342E-01
-0.2540166387100E-01 -0.3108250093922E-01
-0.2742375160171E-01 -0.3259267129459E-01
-0.2952107684055E-01 -0.3410485925907E-01
-0.3169142043501E-01 -0.3561730662251E-01
-0.3393253791596E-01 -0.3713002414106E-01
-0.3624251493928E-01 -0.3864469369916E-01
-0.3862003850997E-01 -0.4016454977197E-01
-0.4106458382321E-01 -0.4169432917967E-01
-0.4357657836073E-01 -0.4324025500343E-01
-0.4615753770577E-01 -0.4480961945367E-01
-0.4880988750410E-01 -0.4640915667901E-01
-0.5153718272074E-01 -0.4804638143595E-01
-0.5434495157935E-01 -0.4973213543315E-01
-0.5724157340007E-01 -0.5148059576666E-01
-0.6023917013007E-01 -0.5330986246211E-01
-0.6335516825098E-01 -0.5524290455847E-01
-0.6661453073949E-01 -0.5730821347588E-01
-0.7005340590430E-01 -0.5953844383985E-01
-0.7372304383297E-01 -0.6196291280369E-01
-0.7770253618783E-01 -0.6460183300012E-01
-0.8210648332261E-01 -0.6752494191908E-01
-0.8722286974040E-01 -0.7087833735288E-01
-0.9334734512963E-01 -0.7531979048112E-01
-0.7793419254149E-01  0.3185958036424E-01
-0.7536636318712E-01  0.3124814308891E-01
-0.7282457554382E-01  0.3069294062726E-01
-0.7029968379605E-01  0.3015654849962E-01
-0.6777522880759E-01  0.2963189357660E-01
-0.6524184057051E-01  0.2912671415664E-01
-0.6269357776930E-01  0.2864986224931E-01
-0.6013121239947E-01  0.2819353429136E-01
-0.5755843078848E-01  0.2774611880605E-01
-0.5498027773249E-01  0.2729722925998E-01
-0.5240255187507E-01  0.2683860706569E-01
-0.4983155208736E-01  0.2636401651538E-01
-0.4727382381532E-01  0.2586897500416E-01
-0.4473607768427E-01  0.2535057985339E-01
-0.4222503364956E-01  0.2480748652724E-01
-0.3974730274309E-01  0.2423806270073E-01
-0.3730922379119E-01  0.2364015845791E-01
-0.3491682927356E-01  0.2301260910058E-01
-0.3257589249520E-01  0.2235514265989E-01
-0.3029200143561E-01  0.2166827874026E-01
-0.2807055720194E-01  0.2095329582186E-01
-0.2591669729968E-01  0.2021221901886E-01
-0.2383522193034E-01  0.1944770466051E-01
-0.2183004427417E-01  0.1866220096954E-01
-0.1990336253293E-01  0.1785555187450E-01
-0.1805573340835E-01  0.1702177308667E-01
-0.1628815027057E-01  0.1615587460906E-01
-0.1460268708118E-01  0.1525687292560E-01
-0.1300147841531E-01  0.1432492851821E-01
-0.1148640881169E-01  0.1336043234931E-01
-0.1005907372726E-01  0.1236381593296E-01
-0.8720709542744E-02  0.1133545651608E-01
-0.7472091972462E-02  0.1027559479371E-01
-0.6313346415525E-02  0.9184197770722E-02
-0.5243647033283E-02  0.8060772765183E-02
-0.4260788222665E-02  0.6903984201176E-02
-0.3359907636202E-02  0.5711004560124E-02
-0.2532663721798E-02  0.4475804662259E-02
-0.1757789312890E-02  0.3183802933372E-02
-0.1000423972748E-02  0.1817068626798E-02
-0.1147666443662E+01 -0.3176922200440E+00
-0.1148808543043E+01 -0.3195537069916E+00
-0.1149756135333E+01 -0.3217528892260E+00
-0.1150490694395E+01 -0.3242695318051E+00
-0.1150998725184E+01 -0.3270904256900E+00
-0.1151267760228E+01 -0.3302040223342E+00
-0.1151285014068E+01 -0.3335982135454E+00
-0.1151037033639E+01 -0.3372594914943E+00
-0.1150509601465E+01 -0.3411726301127E+00
-0.1149687661068E+01 -0.3453201230522E+00
-0.1148555491676E+01 -0.3496815398511E+00
-0.1147096930581E+01 -0.3542334449855E+00
-0.1145295623976E+01 -0.3589495341433E+00
-0.1143135295393E+01 -0.3638007716354E+00
-0.1140600014562E+01 -0.3687555385019E+00
-0.1137674455261E+01 -0.3737798137988E+00
-0.1134344139379E+01 -0.3788373862677E+00
-0.1130595660289E+01 -0.3838900980574E+00
-0.1126416880261E+01 -0.3888981204982E+00
-0.1121797098976E+01 -0.3938202482954E+00
-0.1116727197852E+01 -0.3986141994938E+00
-0.1111199769119E+01 -0.4032369532330E+00
-0.1105209197438E+01 -0.4076451933238E+00
-0.1098751682789E+01 -0.4117956498596E+00
-0.1091825234823E+01 -0.4156454205820E+00
-0.1084429648631E+01 -0.4191522905205E+00
-0.1076566465231E+01 -0.4222750372276E+00
-0.1068238923457E+01 -0.4249737246704E+00
-0.1059451892209E+01 -0.4272099731729E+00
-0.1050211809690E+01 -0.4289472004759E+00
-0.1040526626177E+01 -0.4301508101279E+00
-0.1030405767350E+01 -0.4307882604641E+00
-0.1019860123489E+01 -0.4308290706100E+00
-0.1008902079735E+01 -0.4302451676313E+00
-0.9975453609347E+00 -0.4290109565559E+00
-0.9858050033783E+00 -0.4271033242925E+00
-0.9736970978181E+00 -0.4245015352593E+00
-0.9612384672640E+00 -0.4211872117930E+00
-0.9484461171015E+00 -0.4171434373804E+00
-0.1104985059288E+01 -0.3065158790941E+00
-0.1061362574464E+01 -0.2952924083422E+00
-0.1015871004547E+01 -0.2825701849862E+00
-0.9688676091611E+00 -0.2685220329478E+00
-0.9206514837366E+00 -0.2533557503006E+00
-0.8714632574225E+00 -0.2372942952382E+00
-0.8214786874424E+00 -0.2205697867927E+00
-0.7707946454786E+00 -0.2034088203709E+00
-0.7193933618756E+00 -0.1860116928706E+00
-0.6671311024345E+00 -0.1685329302910E+00
-0.6137701652139E+00 -0.1510849087516E+00
-0.5590632910167E+00 -0.1337834619587E+00
-0.5028667083520E+00 -0.1168058545201E+00
-0.4451996936227E+00 -0.1004196017069E+00
-0.3862523175675E+00 -0.8497293498182E-01
-0.3263781302937E+00 -0.7085796147843E-01
-0.2660918659591E+00 -0.5845507667430E-01
-0.2060699643319E+00 -0.4805769330687E-01
-0.1471366677781E+00 -0.3977064494045E-01
-0.8772167718233E+00 -0.3818582479672E+00
-0.8196430747020E+00 -0.3512225561130E+00
-0.7629329831124E+00 -0.3207756709715E+00
-0.7072598484872E+00 -0.2908044280572E+00
-0.6527070931475E+00 -0.2615317703276E+00
-0.5993285353593E+00 -0.2331308211861E+00
-0.5472021864280E+00 -0.2057409432694E+00
-0.4964627907378E+00 -0.1794866587757E+00
-0.4473105803472E+00 -0.1544932050900E+00
-0.3999956674399E+00 -0.1308893441503E+00
-0.3547819300499E+00 -0.1087933379677E+00
-0.3119241431195E+00 -0.8830026653668E-01
-0.2716532438515E+00 -0.6947445067610E-01
-0.2341812156567E+00 -0.5235604946245E-01
-0.1997174963666E+00 -0.3698153801004E-01
-0.1684844227769E+00 -0.2341036403729E-01
-0.1407235624957E+00 -0.1175106799809E-01
-0.1166923494700E+00 -0.2185737509401E-02
-0.9665066435934E-01  0.5005388446780E-02
-0.1161270150659E+01 -0.3184418406588E+00
-0.1175504846741E+01 -0.3205072329395E+00
-0.1189029545033E+01 -0.3224991363875E+00
-0.1201840313274E+01 -0.3244683087852E+00
-0.1213946046424E+01 -0.3264529330863E+00
-0.1225362141051E+01 -0.3284865480183E+00
-0.1236108357073E+01 -0.3306001724036E+00
-0.1246208108349E+01 -0.3328230456704E+00
-0.1255688124749E+01 -0.3351826741583E+00
-0.1264578181620E+01 -0.3377046077541E+00
-0.1272910788930E+01 -0.3404121120049E+00
-0.1280720810855E+01 -0.3433258314866E+00
-0.1288045016715E+01 -0.3464635039456E+00
-0.1294921576600E+01 -0.3498397702797E+00
-0.1301389511163E+01 -0.3534661093538E+00
-0.1307488116855E+01 -0.3573509492948E+00
-0.1313256265018E+01 -0.3614998762836E+00
-0.1318732004027E+01 -0.3659166364334E+00
-0.1323949881590E+01 -0.3706023307648E+00
-0.9455132200781E+00 -0.4194207498206E+00
-0.9558251625311E+00 -0.4259726736334E+00
-0.9663077199586E+00 -0.4319368171552E+00
-0.9770065249857E+00 -0.4372464158094E+00
-0.9879708663314E+00 -0.4418237639678E+00
-0.9992563794453E+00 -0.4455832518757E+00
-0.1010926054500E+01 -0.4484312616832E+00
-0.1023050878652E+01 -0.4502660801200E+00
-0.1035710281309E+01 -0.4509774104554E+00
-0.1048992438368E+01 -0.4504456700765E+00
-0.1062994377185E+01 -0.4485410965737E+00
-0.1077821753696E+01 -0.4451226842763E+00
-0.1093588081853E+01 -0.4400369752430E+00
-0.1110413062120E+01 -0.4331167692270E+00
-0.1128419437631E+01 -0.4241799392017E+00
-0.1147727566044E+01 -0.4130287101031E+00
-0.1168446358319E+01 -0.3994505924358E+00
-0.1190661237071E+01 -0.3832213118730E+00
-0.1214417442745E+01 -0.3641195767489E+00
-0.1285389030237E-02 -0.2304037239667E-02
-0.2441631889803E-02 -0.4439729723210E-02
-0.3465850666279E-02 -0.6357416337131E-02
-0.4494834748062E-02 -0.8191039013698E-02
-0.5552164758193E-02 -0.9962636446118E-02
-0.6657651544263E-02 -0.1168855806710E-01
-0.7821493806998E-02 -0.1337701518169E-01
-0.9050235410497E-02 -0.1503310157492E-01
-0.1034784384618E-01 -0.1666007064854E-01
-0.1171667759790E-01 -0.1826018112230E-01
-0.1315795238430E-01 -0.1983513987738E-01
-0.1467207917033E-01 -0.2138642896176E-01
-0.1625885803721E-01 -0.2291553083754E-01
-0.1791761657414E-01 -0.2442417378638E-01
-0.1964726430652E-01 -0.2591476704461E-01
-0.2144698535969E-01 -0.2739069771232E-01
-0.2331851563253E-01 -0.2885861012839E-01
-0.2526543591654E-01 -0.3032662084833E-01
-0.2728913395374E-01 -0.3179734568479E-01
-0.2938834878771E-01 -0.3327001603722E-01
-0.3156070969360E-01 -0.3474352778510E-01
-0.3380383080715E-01 -0.3621783728267E-01
-0.3611569076146E-01 -0.3769422791984E-01
-0.3849490255565E-01 -0.3917534649804E-01
-0.4094089708456E-01 -0.4066518443638E-01
-0.4345409856427E-01 -0.4216903864508E-01
-0.4603601172854E-01 -0.4369356613580E-01
-0.4868896933100E-01 -0.4524522711813E-01
-0.5141641568582E-01 -0.4683058799755E-01
-0.5422381344326E-01 -0.4845866445812E-01
-0.5711951054126E-01 -0.5014125162146E-01
-0.6011564810286E-01 -0.5189326752834E-01
-0.6322972452369E-01 -0.5373338881993E-01
-0.6648687779283E-01 -0.5568452461332E-01