<VTKFile type="UnstructuredGrid" version="1,0" byte_order="LittleEndian">
<UnstructuredGrid>
<Piece NumberOfPoints="5802" NumberOfCells="5680">
<Points>
<DataArray type="Float64" NumberOfComponents="3" format="ascii">
-0.1100000000000E+01 -0.4260376958938E+01  0.0000000000000E+00
 0.0000000000000E+00 -0.4260376958938E+01  0.0000000000000E+00
 0.1100000000000E+01 -0.4260376958938E+01  0.0000000000000E+00
-0.1294830748007E+01 -0.1260376958938E+01  0.0000000000000E+00
-0.6474153677980E+00 -0.1260376958938E+01  0.0000000000000E+00
 0.6474153802085E+00 -0.1260376958938E+01  0.0000000000000E+00
 0.1294830748007E+01 -0.1260376958938E+01  0.0000000000000E+00
-0.1038349899718E+01  0.8622996231128E+00  0.0000000000000E+00
 0.1038349908233E+01  0.8622996153791E+00  0.0000000000000E+00
-0.5250000000000E+00  0.3489497150362E+00  0.0000000000000E+00
 0.5250000000000E+00  0.3489497150362E+00  0.0000000000000E+00
-0.1072500000000E+01 -0.4260376958938E+01  0.0000000000000E+00
-0.1045000000000E+01 -0.4260376958938E+01  0.0000000000000E+00
-0.1017500000000E+01 -0.4260376958938E+01  0.0000000000000E+00
-0.9900000000000E+00 -0.4260376958938E+01  0.0000000000000E+00
-0.9625000000000E+00 -0.4260376958938E+01  0.0000000000000E+00
-0.9350000000000E+00 -0.4260376958938E+01  0.0000000000000E+00
-0.9075000000000E+00 -0.4260376958938E+01  0.0000000000000E+00
-0.8800000000000E+00 -0.4260376958938E+01  0.0000000000000E+00
-0.8525000000000E+00 -0.4260376958938E+01  0.0000000000000E+00
-0.8250000000000E+00 -0.4260376958938E+01  0.0000000000000E+00
-0.7975000000000E+00 -0.4260376958938E+01  0.0000000000000E+00
-0.7700000000000E+00 -0.4260376958938E+01  0.0000000000000E+00
-0.7425000000000E+00 -0.4260376958938E+01  0.0000000000000E+00
-0.7150000000000E+00 -0.4260376958938E+01  0.0000000000000E+00
-0.6875000000000E+00 -0.4260376958938E+01  0.0000000000000E+00
-0.6600000000000E+00 -0.4260376958938E+01  0.0000000000000E+00
-0.6325000000000E+00 -0.4260376958938E+01  0.0000000000000E+00
-0.6050000000000E+00 -0.4260376958938E+01  0.0000000000000E+00
-0.5775000000000E+00 -0.4260376958938E+01  0.0000000000000E+00
-0.5500000000000E+00 -0.4260376958938E+01  0.0000000000000E+00
-0.5225000000000E+00 -0.4260376958938E+01  0.0000000000000E+00
-0.4950000000000E+00 -0.4260376958938E+01  0.0000000000000E+00
-0.4675000000000E+00 -0.4260376958938E+01  0.0000000000000E+00
-0.4400000000000E+00 -0.4260376958938E+01  0.0000000000000E+00
-0.4125000000000E+00 -0.4260376958938E+01  0.0000000000000E+00
-0.3850000000000E+00 -0.4260376958938E+01  0.0000000000000E+00
-0.3575000000000E+00 -0.4260376958938E+01  0.0000000000000E+00
-0.3300000000000E+00 -0.4260376958938E+01  0.0000000000000E+00
-0.3025000000000E+00 -0.4260376958938E+01  0.0000000000000E+00
-0.2750000000000E+00 -0.4260376958938E+01  0.0000000000000E+00
-0.2475000000000E+00 -0.4260376958938E+01  0.0000000000000E+00
-0.2200000000000E+00 -0.4260376958938E+01  0.0000000000000E+00
-0.1925000000000E+00 -0.4260376958938E+01  0.0000000000000E+00
-0.1650000000000E+00 -0.4260376958938E+01  0.0000000000000E+00
-0.1375000000000E+00 -0.4260376958938E+01  0.0000000000000E+00
-0.1100000000000E+00 -0.4260376958938E+01  0.0000000000000E+00
-0.8250000000000E-01 -0.4260376958938E+01  0.0000000000000E+00
-0.5500000000000E-01 -0.4260376958938E+01  0.0000000000000E+00
-0.2750000000000E-01 -0.4260376958938E+01  0.0000000000000E+00
 0.2750000000000E-01 -0.4260376958938E+01  0.0000000000000E+00
 0.5500000000000E-01 -0.4260376958938E+01  0.0000000000000E+00
 0.8250000000000E-01 -0.4260376958938E+01  0.0000000000000E+00
 0.1100000000000E+00 -0.4260376958938E+01  0.0000000000000E+00
 0.1375000000000E+00 -0.4260376958938E+01  0.0000000000000E+00
 0.1650000000000E+00 -0.4260376958938E+01  0.0000000000000E+00
 0.1925000000000E+00 -0.4260376958938E+01  0.0000000000000E+00
 0.2200000000000E+00 -0.4260376958938E+01  0.0000000000000E+00
 0.2475000000000E+00 -0.4260376958938E+01  0.0000000000000E+00
 0.2750000000000E+00 -0.4260376958938E+01  0.0000000000000E+00
 0.3025000000000E+00 -0.4260376958938E+01  0.0000000000000E+00
 0.3300000000000E+00 -0.4260376958938E+01  0.0000000000000E+00
 0.3575000000000E+00 -0.4260376958938E+01  0.0000000000000E+00
 0.3850000000000E+00 -0.4260376958938E+01  0.0000000000000E+00
 0.4125000000000E+00 -0.4260376958938E+01  0.0000000000000E+00
 0.4400000000000E+00 -0.4260376958938E+01  0.0000000000000E+00
 0.4675000000000E+00 -0.4260376958938E+01  0.0000000000000E+00
 0.4950000000000E+00 -0.4260376958938E+01  0.0000000000000E+00
 0.5225000000000E+00 -0.4260376958938E+01  0.0000000000000E+00
 0.5500000000000E+00 -0.4260376958938E+01  0.0000000000000E+00
 0.5775000000000E+00 -0.4260376958938E+01  0.0000000000000E+00
 0.6050000000000E+00 -0.4260376958938E+01  0.0000000000000E+00
 0.6325000000000E+00 -0.4260376958938E+01  0.0000000000000E+00
 0.6600000000000E+00 -0.4260376958938E+01  0.0000000000000E+00
 0.6875000000000E+00 -0.4260376958938E+01  0.0000000000000E+00
 0.7150000000000E+00 -0.4260376958938E+01  0.0000000000000E+00
 0.7425000000000E+00 -0.4260376958938E+01  0.0000000000000E+00
 0.7700000000000E+00 -0.4260376958938E+01  0.0000000000000E+00
 0.7975000000000E+00 -0.4260376958938E+01  0.0000000000000E+00
 0.8250000000000E+00 -0.4260376958938E+01  0.0000000000000E+00
 0.8525000000000E+00 -0.4260376958938E+01  0.0000000000000E+00
 0.8800000000000E+00 -0.4260376958938E+01  0.0000000000000E+00
 0.9075000000000E+00 -0.4260376958938E+01  0.0000000000000E+00
 0.9350000000000E+00 -0.4260376958938E+01  0.0000000000000E+00
 0.9625000000000E+00 -0.4260376958938E+01  0.0000000000000E+00
 0.9900000000000E+00 -0.4260376958938E+01  0.0000000000000E+00
 0.1017500000000E+01 -0.4260376958938E+01  0.0000000000000E+00
 0.1045000000000E+01 -0.4260376958938E+01  0.0000000000000E+00
 0.1072500000000E+01 -0.4260376958938E+01  0.0000000000000E+00
-0.1262459978996E+01 -0.1260376958938E+01  0.0000000000000E+00
-0.1230089209986E+01 -0.1260376958938E+01  0.0000000000000E+00
-0.1197718440975E+01 -0.1260376958938E+01  0.0000000000000E+00
-0.1165347671965E+01 -0.1260376958938E+01  0.0000000000000E+00
-0.1132976902954E+01 -0.1260376958938E+01  0.0000000000000E+00
-0.1100606133944E+01 -0.1260376958938E+01  0.0000000000000E+00
-0.1068235364934E+01 -0.1260376958938E+01  0.0000000000000E+00
-0.1035864595923E+01 -0.1260376958938E+01  0.0000000000000E+00
-0.1003493826913E+01 -0.1260376958938E+01  0.0000000000000E+00
-0.9711230579023E+00 -0.1260376958938E+01  0.0000000000000E+00
-0.9387522888919E+00 -0.1260376958938E+01  0.0000000000000E+00
-0.9063815198814E+00 -0.1260376958938E+01  0.0000000000000E+00
-0.8740107508710E+00 -0.1260376958938E+01  0.0000000000000E+00
-0.8416399818606E+00 -0.1260376958938E+01  0.0000000000000E+00
-0.8092692128501E+00 -0.1260376958938E+01  0.0000000000000E+00
-0.7768984438397E+00 -0.1260376958938E+01  0.0000000000000E+00
-0.7445276748293E+00 -0.1260376958938E+01  0.0000000000000E+00
-0.7121569058189E+00 -0.1260376958938E+01  0.0000000000000E+00
-0.6797861368084E+00 -0.1260376958938E+01  0.0000000000000E+00
-0.6150445990978E+00 -0.1260376958938E+01  0.0000000000000E+00
-0.5826738303977E+00 -0.1260376958938E+01  0.0000000000000E+00
-0.5503030616975E+00 -0.1260376958938E+01  0.0000000000000E+00
-0.5179322929974E+00 -0.1260376958938E+01  0.0000000000000E+00
-0.4855615242972E+00 -0.1260376958938E+01  0.0000000000000E+00
-0.4531907555970E+00 -0.1260376958938E+01  0.0000000000000E+00
-0.4208199868969E+00 -0.1260376958938E+01  0.0000000000000E+00
-0.3884492181967E+00 -0.1260376958938E+01  0.0000000000000E+00
-0.3560784494965E+00 -0.1260376958938E+01  0.0000000000000E+00
-0.3237076807964E+00 -0.1260376958938E+01  0.0000000000000E+00
-0.2913369120962E+00 -0.1260376958938E+01  0.0000000000000E+00
-0.2589661433960E+00 -0.1260376958938E+01  0.0000000000000E+00
-0.2265953746959E+00 -0.1260376958938E+01  0.0000000000000E+00
-0.1942246059957E+00 -0.1260376958938E+01  0.0000000000000E+00
-0.1618538372956E+00 -0.1260376958938E+01  0.0000000000000E+00
-0.1294830685954E+00 -0.1260376958938E+01  0.0000000000000E+00
-0.9711229989523E-01 -0.1260376958938E+01  0.0000000000000E+00
-0.6474153119507E-01 -0.1260376958938E+01  0.0000000000000E+00
-0.3237076249490E-01 -0.1260376958938E+01  0.0000000000000E+00
 0.6205262220726E-08 -0.1260376958938E+01  0.0000000000000E+00
 0.3237077490543E-01 -0.1260376958938E+01  0.0000000000000E+00
 0.6474154360559E-01 -0.1260376958938E+01  0.0000000000000E+00
 0.9711231230575E-01 -0.1260376958938E+01  0.0000000000000E+00
 0.1294830810059E+00 -0.1260376958938E+01  0.0000000000000E+00
 0.1618538497061E+00 -0.1260376958938E+01  0.0000000000000E+00
 0.1942246184062E+00 -0.1260376958938E+01  0.0000000000000E+00
 0.2265953871064E+00 -0.1260376958938E+01  0.0000000000000E+00
 0.2589661558066E+00 -0.1260376958938E+01  0.0000000000000E+00
 0.2913369245067E+00 -0.1260376958938E+01  0.0000000000000E+00
 0.3237076932069E+00 -0.1260376958938E+01  0.0000000000000E+00
 0.3560784619071E+00 -0.1260376958938E+01  0.0000000000000E+00
 0.3884492306072E+00 -0.1260376958938E+01  0.0000000000000E+00
 0.4208199993074E+00 -0.1260376958938E+01  0.0000000000000E+00
 0.4531907680076E+00 -0.1260376958938E+01  0.0000000000000E+00
 0.4855615367077E+00 -0.1260376958938E+01  0.0000000000000E+00
 0.5179323054079E+00 -0.1260376958938E+01  0.0000000000000E+00
 0.5503030741080E+00 -0.1260376958938E+01  0.0000000000000E+00
 0.5826738428082E+00 -0.1260376958938E+01  0.0000000000000E+00
 0.6150446115084E+00 -0.1260376958938E+01  0.0000000000000E+00
 0.6797861485984E+00 -0.1260376958938E+01  0.0000000000000E+00
 0.7121569169883E+00 -0.1260376958938E+01  0.0000000000000E+00
 0.7445276853782E+00 -0.1260376958938E+01  0.0000000000000E+00
 0.7768984537681E+00 -0.1260376958938E+01  0.0000000000000E+00
 0.8092692221580E+00 -0.1260376958938E+01  0.0000000000000E+00
 0.8416399905479E+00 -0.1260376958938E+01  0.0000000000000E+00
 0.8740107589378E+00 -0.1260376958938E+01  0.0000000000000E+00
 0.9063815273277E+00 -0.1260376958938E+01  0.0000000000000E+00
[...]
<PointData Vectors="'U'">
<DataArray type="Float64" Name="U" NumberOfComponents="2" ComponentName0="U1" ComponentName1="U2" format="ascii">
-0.1790024915569E-37 -0.4489639959441E-37
-0.3164317646871E-37 -0.2280076904198E-37
-0.4789715385212E-37  0.1189974940577E-36
-0.1245798676398E+00 -0.8331947707732E-01
-0.1110133727147E+00 -0.3275461386248E-01
-0.1076745925920E+00  0.2271865556907E-01
-0.1155533608448E+00  0.6489278059064E-01
-0.1455183594588E+01 -0.2900377837360E+00
-0.1630347647865E+01  0.7855792672864E-01
-0.1219144744821E+01 -0.1225977742267E+00
-0.1310946449850E+01  0.6216799326498E-03
-0.1503176197322E-36 -0.3852155277871E-36
-0.1465396644359E-36 -0.3490795348102E-36
-0.1414335671953E-36 -0.3224653287630E-36
-0.1361725481634E-36 -0.3012448510146E-36
-0.1310793241484E-36 -0.2834789956245E-36
-0.1262439704977E-36 -0.2680936216356E-36
-0.1216787343660E-36 -0.2544353393786E-36
-0.1173684295892E-36 -0.2420807933983E-36
-0.1132892622594E-36 -0.2307422095278E-36
-0.1094162124179E-36 -0.2202162387315E-36
-0.1057258473359E-36 -0.2103544467414E-36
-0.1021972332642E-36 -0.2010454389622E-36
-0.9881205688915E-37 -0.1922035900918E-36
-0.9555443672235E-37 -0.1837616911584E-36
-0.9241063387516E-37 -0.1756660076637E-36
-0.8936875162656E-37 -0.1678728701203E-36
-0.8641845923720E-37 -0.1603462664990E-36
-0.8355075133691E-37 -0.1530561065192E-36
-0.8075774377443E-37 -0.1459769468126E-36
-0.7803250267706E-37 -0.1390870388001E-36
-0.7536890218320E-37 -0.1323676068105E-36
-0.7276150625964E-37 -0.1258022931533E-36
-0.7020547050528E-37 -0.1193767264326E-36
-0.6769646037784E-37 -0.1130781817684E-36
-0.6523058292255E-37 -0.1068953107067E-36
-0.6280432958812E-37 -0.1008179245114E-36
-0.6041452816743E-37 -0.9483681880828E-37
-0.5805830227155E-37 -0.8894363059198E-37
-0.5573303704720E-37 -0.8313072079151E-37
-0.5343635009228E-37 -0.7739107719817E-37
-0.5116606672086E-37 -0.7171823374088E-37
-0.4892019888737E-37 -0.6610620298103E-37
-0.4669692720816E-37 -0.6054941936738E-37
-0.4449458562192E-37 -0.5504269130033E-37
-0.4231164831512E-37 -0.4958116044645E-37
-0.4014671860768E-37 -0.4416026704641E-37
-0.3799851955134E-37 -0.3877572019584E-37
-0.3586588604083E-37 -0.3342347226306E-37
-0.3374775827863E-37 -0.2809969675305E-37
-0.2955127664530E-37 -0.1752324949657E-37
-0.2747128757097E-37 -0.1226386856337E-37
-0.2540252866358E-37 -0.7019513467901E-38
-0.2334440893729E-37 -0.1787216204542E-38
-0.2129642696820E-37  0.3435857472660E-38
-0.1925817192154E-37  0.8652418329678E-38
-0.1722932570699E-37  0.1386506346648E-37
-0.1520966636139E-37  0.1907628593248E-37
-0.1319907279719E-37  0.2428848442624E-37
-0.1119753110102E-37  0.2950397339273E-37
-0.9205142624248E-38  0.3472499387958E-37
-0.7222134178531E-38  0.3995372558588E-37
-0.5248870740308E-38  0.4519230064026E-37
-0.3285871185384E-38  0.5044281979118E-37
-0.1333827728229E-38  0.5570737189867E-37
 0.6063700561166E-39  0.6098805790777E-37
 0.2533605476488E-38  0.6628702089806E-37
 0.4446497713888E-38  0.7160648439699E-37
 0.6343355518806E-38  0.7694880200453E-37
 0.8222118866025E-38  0.8231652263934E-37
 0.1008028479804E-37  0.8771247760843E-37
 0.1191481223653E-37  0.9313989848017E-37
 0.1372199836078E-37  0.9860257928778E-37
 0.1549731602337E-37  0.1041051032746E-36
 0.1723519682077E-37  0.1096531656252E-36
 0.1892873709773E-37  0.1152540418269E-36
 0.2056929277096E-37  0.1209172822670E-36
 0.2214591115003E-37  0.1266557678239E-36
 0.2364452063540E-37  0.1324873594900E-36
 0.2504675863761E-37  0.1384375611179E-36
 0.2632826445283E-37  0.1445439844307E-36
 0.2745621947161E-37  0.1508641856874E-36
 0.2838599988588E-37  0.1574902072997E-36
 0.2905752455747E-37  0.1645774958215E-36
 0.2939537249032E-37  0.1724076966436E-36
 0.2933254599004E-37  0.1815415025397E-36
 0.2895333173644E-37  0.1932514712386E-36
 0.2926257421477E-37  0.2110222884381E-36
 0.3678506990507E-37  0.2473041353739E-36
-0.1228944125278E+00 -0.7709378394232E-01
-0.1215928057053E+00 -0.7260344508762E-01
-0.1204909735903E+00 -0.6895407699583E-01
-0.1195446004447E+00 -0.6577827378893E-01
-0.1187121677719E+00 -0.6290903535153E-01
-0.1179637237081E+00 -0.6025682014386E-01
-0.1172784297183E+00 -0.5776899675344E-01
-0.1166420898620E+00 -0.5541215157425E-01
-0.1160450056717E+00 -0.5316367841328E-01
-0.1154804660251E+00 -0.5100743992156E-01
-0.1149437433380E+00 -0.4893139069245E-01
-0.1144314429595E+00 -0.4692620127120E-01
-0.1139410826151E+00 -0.4498442097028E-01
-0.1134708182133E+00 -0.4309994500737E-01
-0.1130192624457E+00 -0.4126766156424E-01
-0.1125853630680E+00 -0.3948320993402E-01
-0.1121683209705E+00 -0.3774280994968E-01
-0.1117675394875E+00 -0.3604314000678E-01
-0.1113825977564E+00 -0.3438124140272E-01
-0.1106586111486E+00 -0.3116057625030E-01
-0.1103187350954E+00 -0.2959635556566E-01
-0.1099934125477E+00 -0.2806023981392E-01
-0.1096825211163E+00 -0.2655032154441E-01
-0.1093859792883E+00 -0.2506477129162E-01
-0.1091037286415E+00 -0.2360183583875E-01
-0.1088357240607E+00 -0.2215983408416E-01
-0.1085819294166E+00 -0.2073714938458E-01
-0.1083423146035E+00 -0.1933222183917E-01
-0.1081168532332E+00 -0.1794354109655E-01
-0.1079055206919E+00 -0.1656963993276E-01
-0.1077082924736E+00 -0.1520908861532E-01
-0.1075251427525E+00 -0.1386048999366E-01
-0.1073560431685E+00 -0.1252247523050E-01
-0.1072009618066E+00 -0.1119370008638E-01
-0.1070598623513E+00 -0.9872841676428E-02
-0.1069327033960E+00 -0.8558595627617E-02
-0.1068194378953E+00 -0.7249673574429E-02
-0.1067200127434E+00 -0.5944800939208E-02
-0.1066343684696E+00 -0.4642714950817E-02
-0.1065624390408E+00 -0.3342162860951E-02
-0.1065041517661E+00 -0.2041900321977E-02
-0.1064594272982E+00 -0.7406898934325E-03
-0.1064281797310E+00  0.5627003535559E-03
-0.1064103167947E+00  0.1869498163589E-02
-0.1064057401510E+00  0.3180928385601E-02
-0.1064143457977E+00  0.4498214253125E-02
-0.1064360245903E+00  0.5822578688549E-02
-0.1064706629002E+00  0.7155245665552E-02
-0.1065181434278E+00  0.8497441667013E-02
-0.1065783462064E+00  0.9850397278566E-02
-0.1066511498458E+00  0.1121534895836E-01
-0.1067364331029E+00  0.1259354101911E-01
-0.1068340769313E+00  0.1398622785042E-01
-0.1069439673252E+00  0.1539467638452E-01
-0.1070659996465E+00  0.1682016873974E-01
-0.1072000858315E+00  0.1826400511135E-01
-0.1073461698300E+00  0.1972750518760E-01
-0.1075042540820E+00  0.2121201634125E-01
-0.1078560427174E+00  0.2424921393509E-01
-0.1080492575446E+00  0.2580566809137E-01
-0.1082542428617E+00  0.2738945189206E-01
-0.1084711602965E+00  0.2900231914156E-01
-0.1087002693269E+00  0.3064620818143E-01
-0.1089419558960E+00  0.3232328458662E-01
-0.1091967722785E+00  0.3403600653014E-01
-0.1094654959076E+00  0.3578722177369E-01
-0.1097492139350E+00  0.3758030859609E-01
-0.1100494475083E+00  0.3941938465565E-01
-0.1103683384705E+00  0.4130962607962E-01
-0.1107089351004E+00  0.4325777379399E-01
-0.1110756344713E+00  0.4527297295578E-01
-0.1114748675014E+00  0.4736823409420E-01
-0.1119161381314E+00  0.4956311781010E-01
-0.1124135226349E+00  0.5188896763133E-01
-0.1129874762696E+00  0.5439995671752E-01
-0.1136667330041E+00  0.5719845083640E-01
-0.1144833660340E+00  0.6051136171883E-01
-0.2822370183971E+00 -0.1629820939511E+00
-0.3820594940570E+00 -0.2320419701803E+00
-0.4695260014826E+00 -0.2805577639114E+00
-0.5501080849803E+00 -0.3185859524356E+00
-0.6264302379093E+00 -0.3492239883237E+00
-0.6995825884296E+00 -0.3741449317560E+00
-0.7701026026810E+00 -0.3942273619875E+00
-0.8382728628386E+00 -0.4101394009266E+00
-0.9042435306069E+00 -0.4223661334314E+00
-0.9680835302357E+00 -0.4312318401971E+00
-0.1029838707448E+01 -0.4371030018068E+00
-0.1089620709557E+01 -0.4405502842218E+00
-0.1147101632025E+01 -0.4392498430993E+00
-0.1201713250286E+01 -0.4315601410769E+00
-0.1253034079781E+01 -0.4178936875109E+00
-0.1300655381774E+01 -0.3988539222296E+00
-0.1344610235394E+01 -0.3757033220217E+00
-0.1385146011684E+01 -0.3496208925560E+00
-0.1422222326821E+01 -0.3211091510312E+00
-0.1469712314014E+01 -0.2732608128969E+00
-0.1483131367835E+01 -0.2559977247307E+00
-0.1495495133067E+01 -0.2383953899268E+00
-0.1506868214344E+01 -0.2205648126217E+00
-0.1517339491879E+01 -0.2026169319219E+00
-0.1527036948171E+01 -0.1846662682788E+00
-0.1536137705636E+01 -0.1668318330533E+00
-0.1544856422877E+01 -0.1492304211999E+00
-0.1553307674930E+01 -0.1319240158814E+00
-0.1561193503068E+01 -0.1148140389876E+00
-0.1568280229219E+01 -0.9784758397201E-01
-0.1574496689454E+01 -0.8105024627456E-01
-0.1579854242465E+01 -0.6448232001563E-01
-0.1584396714612E+01 -0.4821368620038E-01
-0.1588176233437E+01 -0.3231412617678E-01
-0.1591242629766E+01 -0.1685395818377E-01
-0.1593640788919E+01 -0.1902719868235E-02
-0.1595410022551E+01  0.1246676063674E-01
-0.1596585524147E+01  0.2617567250904E-01
-0.1597200821120E+01  0.3913494072598E-01
-0.1597303667905E+01  0.5124144856416E-01
-0.1596991666818E+01  0.6238219095115E-01
-0.1596371484880E+01  0.7242451559109E-01
-0.1595557220507E+01  0.8120292963534E-01
-0.1594688940814E+01  0.8849970909334E-01
-0.1593966425075E+01  0.9400849066169E-01
-0.1593725852635E+01  0.9725144386969E-01
-0.1594545012161E+01  0.9718188502325E-01
-0.1596893093065E+01  0.9315271936339E-01
-0.1600573074922E+01  0.8652402190804E-01
-0.1605113214996E+01  0.7918392212753E-01
-0.1610146574726E+01  0.7215065161046E-01
-0.1615291913219E+01  0.6605869289550E-01
-0.1620284154998E+01  0.6141599342379E-01
-0.1624853252790E+01  0.5861941008103E-01
-0.1628695538116E+01  0.5794796989018E-01
-0.1631482677320E+01  0.5957552090691E-01
-0.1632880610397E+01  0.6358391137595E-01
-0.1632582882228E+01  0.6998629131718E-01
-0.1615552719058E+01  0.1026888043137E+00
-0.1588156918519E+01  0.1330470877824E+00
-0.1547269699489E+01  0.1682226569193E+00
-0.1491895063488E+01  0.2059278268531E+00
-0.1421148774004E+01  0.2424742677366E+00
-0.1335325007036E+01  0.2735319121717E+00
-0.1236699675515E+01  0.2960094956418E+00
-0.1128850927902E+01  0.3081203723904E+00
-0.1016644448486E+01  0.3128591575035E+00
-0.9062932375400E+00  0.3143195203279E+00
-0.8055979111980E+00  0.3108472272976E+00
-0.7158673165074E+00  0.3026094200758E+00
-0.6330628250708E+00  0.2906589368683E+00
-0.5552622185673E+00  0.2750111258928E+00
-0.4814906206495E+00  0.2553299598752E+00
-0.4111613961212E+00  0.2311845896403E+00
-0.3437336314895E+00  0.2017067959874E+00
-0.2780396555129E+00  0.1653370994629E+00
-0.2113225106573E+00  0.1168405335048E+00
-0.1716083274170E-02 -0.3103372729985E-02
-0.2947204404085E-02 -0.5414048979601E-02
-0.4133384804053E-02 -0.7596222868380E-02
-0.5338709877409E-02 -0.9687565906047E-02
-0.6603090962437E-02 -0.1171685242912E-01
-0.7943984736839E-02 -0.1369702754014E-01
-0.9372550848587E-02 -0.1563492974023E-01
-0.1089513502461E-01 -0.1753451558134E-01
-0.1251551700017E-01 -0.1939812450961E-01
-0.1423569183932E-01 -0.2122723501742E-01
-0.1605643030969E-01 -0.2302285663923E-01
-0.1797763077242E-01 -0.2478583108988E-01
-0.1999852936519E-01 -0.2651704025815E-01
-0.2211785254236E-01 -0.2821765231735E-01
-0.2433389466733E-01 -0.2988958391108E-01
-0.2664518472177E-01 -0.3153744236272E-01
-0.2905271732615E-01 -0.3317167035166E-01
-0.3155910755528E-01 -0.3480178670858E-01
-0.3416451418219E-01 -0.3642761118914E-01
-0.3686627836116E-01 -0.3804571372125E-01
-0.3966045794304E-01 -0.3965332084305E-01
-0.4254291573925E-01 -0.4124943619929E-01
-0.4550965481533E-01 -0.4283480439963E-01
-0.4855708158116E-01 -0.4441181514269E-01
-0.5168216455080E-01 -0.4598447509248E-01
-0.5488254187625E-01 -0.4755843775670E-01
-0.5815661523380E-01 -0.4914068397110E-01
-0.6150340726407E-01 -0.5073749613477E-01
-0.6492281881461E-01 -0.5235571412222E-01
-0.6841640764948E-01 -0.5400570174207E-01
-0.7198821052895E-01 -0.5570135962686E-01
-0.7564554511976E-01 -0.5746069870058E-01
-0.7940046017280E-01 -0.5930675861469E-01
-0.8327176062764E-01 -0.6126820110605E-01
-0.8728839238320E-01 -0.6337775222011E-01
-0.9149346389480E-01 -0.6566365542797E-01
-0.9595671548566E-01 -0.6813933757611E-01
-0.1007797729757E+00 -0.7086091396082E-01
-0.1062149592648E+00 -0.7395577783422E-01
-0.1125199579109E+00 -0.7799827994373E-01
-0.1068963553182E+00  0.6138488862939E-01
-0.1018425223272E+00  0.5867918298390E-01
-0.9731174340784E-01  0.5656991987000E-01
-0.9314928073939E-01  0.5469445170609E-01
-0.8919806770504E-01  0.5297349427420E-01
-0.8539370051235E-01  0.5137776459240E-01
-0.8169209957109E-01  0.4990369321095E-01
-0.7806838445090E-01  0.4853017116125E-01
-0.7450752405077E-01  0.4723149609902E-01
-0.7100115459519E-01  0.4598505804656E-01
-0.6754527210480E-01  0.4477271874091E-01
-0.6413891280684E-01  0.4358039626437E-01
-0.6078316958689E-01  0.4239737519039E-01
-0.5748067798052E-01  0.4121586871575E-01
-0.5423505562334E-01  0.4003098030967E-01
-0.5105039460401E-01  0.3883799358681E-01
-0.4793101939412E-01  0.3763154556973E-01
-0.4488153731586E-01  0.3640760596441E-01
-0.4190680551391E-01  0.3516359500310E-01
-0.3901190751365E-01  0.3389830156916E-01
-0.3620206018910E-01  0.3261187230741E-01
-0.3348242214230E-01  0.3130584928749E-01
-0.3085786692266E-01  0.2998311479619E-01
-0.2833207427592E-01  0.2864679005073E-01
-0.2590622189201E-01  0.2729672960407E-01
-0.2357922412204E-01  0.2592418222078E-01
-0.2135113376146E-01  0.2452052801746E-01
-0.1922396625800E-01  0.2308266219616E-01
-0.1719990228878E-01  0.2160961216108E-01
-0.1528074742855E-01  0.2010095696491E-01
-0.1346786723999E-01  0.1855646737833E-01
-0.1176206403821E-01  0.1697591880015E-01
-0.1016340419093E-01  0.1535893306711E-01
-0.8670917726802E-02  0.1370473969000E-01
-0.7282121136071E-02  0.1201186173779E-01
-0.5992345910943E-02  0.1027749487338E-01
-0.4792788074998E-02  0.8496463955153E-02
-0.3669220723226E-02  0.6658525798577E-02
-0.2587848045578E-02  0.4740102618711E-02
-0.1493918119719E-02  0.2711106052712E-02
-0.1223457128466E+01 -0.1162993929503E+00
-0.1227723417108E+01 -0.1101855382512E+00
-0.1231918304940E+01 -0.1042254537787E+00
-0.1236037542082E+01 -0.9840955089842E-01
-0.1240080896576E+01 -0.9273584194891E-01
-0.1244049230429E+01 -0.8720550760724E-01
-0.1247943504432E+01 -0.8182131450890E-01
-0.1251764473723E+01 -0.7658679536164E-01
-0.1255512551324E+01 -0.7150588316428E-01
-0.1259187850654E+01 -0.6658257934442E-01
-0.1262790192839E+01 -0.6182127020499E-01
-0.1266319019977E+01 -0.5722659436522E-01
-0.1269773304911E+01 -0.5280324420630E-01
-0.1273151490726E+01 -0.4855585380577E-01
-0.1276451440699E+01 -0.4448892220490E-01
-0.1279670391635E+01 -0.4060673907896E-01
-0.1282804899240E+01 -0.3691330401366E-01
-0.1285850780157E+01 -0.3341223945777E-01
-0.1288803050099E+01 -0.3010668888587E-01
-0.1291655860521E+01 -0.2699920032022E-01
-0.1294402442403E+01 -0.2409159089529E-01
-0.1297035074730E+01 -0.2138482690333E-01
-0.1299545045784E+01 -0.1887892478616E-01
-0.1301922629412E+01 -0.1657280488005E-01
-0.1304157077406E+01 -0.1446414081444E-01
-0.1306236629702E+01 -0.1254921080995E-01
-0.1308148545865E+01 -0.1082275043465E-01
-0.1309879159118E+01 -0.9277806416949E-02
-0.1311413960596E+01 -0.7905588797236E-02
-0.1312737712257E+01 -0.6695327701715E-02
-0.1313834597387E+01 -0.5634130469878E-02
-0.1314688413285E+01 -0.4706846629061E-02
-0.1315282769668E+01 -0.3896063173137E-02
-0.1315601197192E+01 -0.3182307608595E-02
-0.1315627271367E+01 -0.2543659753046E-02
-0.1315345012084E+01 -0.1955252783250E-02
-0.1314739728047E+01 -0.1388313865489E-02
-0.1313799960437E+01 -0.8078897854922E-03
-0.1312523058717E+01 -0.1658408980993E-03
-0.1173658199451E+01 -0.1228157457303E+00
-0.1126065256794E+01 -0.1225829195057E+00
-0.1076517248014E+01 -0.1217412375564E+00
-0.1025214247329E+01 -0.1202320348038E+00
-0.9723651508374E+00 -0.1180350506393E+00
-0.9181871044536E+00 -0.1151519547885E+00
-0.8628978253101E+00 -0.1115996284396E+00
-0.8066989127259E+00 -0.1073971236065E+00
-0.7497427342912E+00 -0.1025477262500E+00
-0.6921033140068E+00 -0.9703150047850E-01
-0.6337771673244E+00 -0.9082831896434E-01
-0.5747442130712E+00 -0.8396738034622E-01
-0.5150527180172E+00 -0.7657429271510E-01
-0.4548731335639E+00 -0.6888160878900E-01
-0.3945151978627E+00 -0.6120256790158E-01
-0.3344318267861E+00 -0.5388480073553E-01
-0.2752236254489E+00 -0.4725334127192E-01
-0.2176431166946E+00 -0.4154028351489E-01
-0.1625851004138E+00 -0.3679296597184E-01
-0.1253207492804E+01 -0.6253572443471E-02
-0.1192040160048E+01 -0.1173286009232E-01
-0.1128101759209E+01 -0.1586234126748E-01
-0.1062049804650E+01 -0.1861495483681E-01
-0.9944882610225E+00 -0.1998554654202E-01
-0.9259926155120E+00 -0.2001303030932E-01
-0.8571158555868E+00 -0.1878346428346E-01
-0.7883781966068E+00 -0.1643838766648E-01
-0.7202407691946E+00 -0.1318044866894E-01
-0.6530859484245E+00 -0.9270394174177E-02
-0.5872263218227E+00 -0.5003074298086E-02
-0.5229357553021E+00 -0.6562804035401E-03
-0.4604935727458E+00  0.3560006864873E-02
-0.4002124254595E+00  0.7524153613688E-02
-0.3424460485326E+00  0.1118913921375E-01
-0.2875993499884E+00  0.1454512967631E-01
-0.2361403473327E+00  0.1756777220510E-01
-0.1886061241296E+00  0.2015431652053E-01
-0.1455905380882E+00  0.2204381661288E-01
-0.1232859854755E+01 -0.1288364098947E+00
-0.1246356730162E+01 -0.1352891434136E+00
-0.1259607351333E+01 -0.1419940225055E+00
-0.1272615190070E+01 -0.1489570624169E+00
-0.1285388506323E+01 -0.1561769809420E+00
-0.1297936970701E+01 -0.1636492492723E+00
-0.1310270450694E+01 -0.1713675780247E+00
-0.1322398672065E+01 -0.1793245184341E+00
-0.1334331122216E+01 -0.1875117660206E+00
-0.1346077043186E+01 -0.1959203478646E+00
-0.1357645454709E+01 -0.2045407671158E+00
-0.1369045187659E+01 -0.2133631360061E+00
-0.1380284919921E+01 -0.2223773131219E+00
-0.1391373209269E+01 -0.2315730558387E+00
-0.1402318511791E+01 -0.2409401945517E+00
-0.1413129176733E+01 -0.2504688527368E+00
-0.1423813340805E+01 -0.2601496755531E+00
-0.1434378907457E+01 -0.2699744464486E+00
-0.1444832189656E+01 -0.2799357606281E+00
-0.1332206342407E+01  0.4361597146206E-02
-0.1353352788821E+01  0.8111494784113E-02
-0.1374281939590E+01  0.1192088279173E-01
-0.1394936892745E+01  0.1578691695746E-01
-0.1415262327431E+01  0.1969912450201E-01
-0.1435199797351E+01  0.2364471560158E-01
-0.1454685900565E+01  0.2761045891668E-01
-0.1473651764586E+01  0.3158344112067E-01
-0.1492022972616E+01  0.3555162912755E-01
-0.1509719804060E+01  0.3950444904498E-01
-0.1526657771382E+01  0.4343346159016E-01
-0.1542748481925E+01  0.4733315241626E-01
-0.1557900851440E+01  0.5120182355430E-01
-0.1572022671965E+01  0.5504254790504E-01
-0.1585022473242E+01  0.5886409856339E-01
-0.1596811645578E+01  0.6268186631927E-01
-0.1607306365146E+01  0.6651832814407E-01
-0.1616431052350E+01  0.7040559925881E-01
-0.1624114364941E+01  0.7438041248392E-01
-0.1436982739280E-02 -0.2591920543845E-02
-0.2747604040865E-02 -0.4999536277550E-02
-0.3933502596319E-02 -0.7165171080875E-02
-0.5148052704926E-02 -0.9237001422337E-02
-0.6417184193438E-02 -0.1123827030583E-01
-0.7762515864177E-02 -0.1318626243792E-01
-0.9194862813492E-02 -0.1508934901024E-01
-0.1072095277003E-01 -0.1695253992014E-01
-0.1234464155559E-01 -0.1877886072626E-01
-0.1406799859923E-01 -0.2057026485206E-01
-0.1589182476352E-01 -0.2232810246167E-01
-0.1781602855623E-01 -0.2405346347445E-01
-0.1983983537597E-01 -0.2574740733868E-01
-0.2196193435788E-01 -0.2741121289523E-01
-0.2418053699777E-01 -0.2904682953250E-01
-0.2649411955942E-01 -0.3065718094219E-01
-0.2890385637644E-01 -0.3224933591057E-01
-0.3141272764596E-01 -0.3383273654611E-01
-0.3402107929250E-01 -0.3541030178860E-01
-0.3672617682196E-01 -0.3698070716373E-01
-0.3952391190280E-01 -0.3854196337553E-01
-0.4240999456398E-01 -0.4009310264048E-01
-0.4538031286490E-01 -0.4163454819558E-01
-0.4843119249290E-01 -0.4316819207309E-01
-0.5155954967857E-01 -0.4469740703090E-01
-0.5476300671727E-01 -0.4622705919690E-01
-0.5803993617601E-01 -0.4776363676867E-01
-0.6138924788161E-01 -0.4931327400506E-01
-0.6481071138767E-01 -0.5088200515233E-01
-0.6830579397792E-01 -0.5247855190660E-01
-0.7187846982245E-01 -0.5411466246128E-01
-0.7553603516984E-01 -0.5580545883603E-01
-0.7929056038191E-01 -0.5757006663786E-01
-0.8316096233127E-01 -0.5943202726404E-01