<?xml version="1.0"?>
<VTKFile type="PolyData" version="0.1" byte_order="LittleEndian" header_type="UInt32" compressor="vtkZLibDataCompressor">
  <PolyData>
    <Piece NumberOfPoints="80" NumberOfVerts="0" NumberOfLines="0" NumberOfStrips="0" NumberOfPolys="0">
      <PointData Normals="Load Orientation">
        <DataArray type="Float64" Name="Load Orientation" NumberOfComponents="3" format="ascii" RangeMin="0.9999999999999999" RangeMax="1">
          0.9878616842916594 0.15533606377285936 0 0.9903177879038639 0.1388188710557666 0
          0.9920576914271217 0.12578369083585392 0 0.9934693069744523 0.11409967615949451 0
          0.9947235862496953 0.10259135908323484 0 0.9959225854755351 0.0902119933253072 0
          0.9971179337925004 0.0758671609418374 0 0.9981584252986638 0.06066100893730473 0
          0.999005225505133 0.04459326645849403 0 0.9996458572086402 0.026611278917085278 0
          0.9999657991994756 0.008270455329306583 0 0.9999848741720584 -0.005500129734141644 0
          0.9978253827352734 -0.06591286345778885 0 0.9856781368032109 -0.16863751251767994 0
          0.9606299464148701 -0.27783107466761836 0 0.9221963234948801 -0.38672204609063393 0
          0.8780402449299879 -0.47858680328994335 0 0.8341657400771567 -0.5515138421486168 0
          0.7864104870550344 -0.6177042543562926 0 0.7223984934969944 -0.6914769819692287 0
          0.65025474725663 -0.7597162389143832 0 0.607270931157051 -0.7944948182157315 0
          0.5661048407563518 -0.8243332513445187 0 0.527000836926288 -0.8498647644649071 0
          0.4909936836204153 -0.8711631320509698 0 0.4600946692233147 -0.8878698639734816 0
          0.43715059317625043 -0.8993883248550941 0 0.42487170320186785 -0.9052535754242255 0
          0.4191736627461492 -0.9079060746905363 0 0.39894462109470014 -0.9169750210881461 0
          0.36591630611621495 -0.9306477620014268 0 0.3275321385385315 -0.9448400384321021 0
          0.2878368875391887 -0.9576794485482878 0 0.24855267424330738 -0.9686183810595895 0
          0.2101720753261969 -0.9776644100881853 0 0.17259879340195225 -0.9849922113987452 0
          0.13545433931593884 -0.9907835898724213 0 0.09820267995087956 -0.9951664351506562 0
          0.06018211280197542 -0.9981874139151877 0 0.020577125959565904 -0.9997882685285141 0
          -0.02057713486983284 -0.9997882683451276 0 -0.060182121315608 -0.998187413401889 0
          -0.09820268819137216 -0.9951664343374872 0 -0.1354543473776871 -0.9907835887702646 0
          -0.17259880135732578 -0.9849922100047361 0 -0.2101720832301555 -0.9776644083890426 0
          -0.2485526821023386 -0.9686183790429199 0 -0.28783689528618495 -0.9576794462198768 0
          -0.3275321459717035 -0.9448400358553668 0 -0.3659163127474509 -0.9306477593941275 0
          -0.3989446259783251 -0.9169750189634471 0 -0.4191736645147442 -0.9079060738739888 0
          -0.4248717043299842 -0.9052535748947554 0 -0.43715059661452804 -0.8993883231839083 0
          -0.4600946748527659 -0.8878698610562967 0 -0.4909936909001563 -0.8711631279480564 0
          -0.5270008452033025 -0.8498647593323333 0 -0.5661048494276651 -0.8243332453895577 0
          -0.6072709396972704 -0.7944948116880275 0 -0.6502547551728538 -0.7597162321387453 0
          -0.7223985005444201 -0.6914769746066556 0 -0.7864104926917933 -0.6177042471800328 0
          -0.8341657446790187 -0.5515138351882918 0 -0.8780402488195577 -0.47858679615393607 0
          -0.9221963268282057 -0.38672203814182243 0 -0.9606299487568295 -0.27783106657004925 0
          -0.9856781381255499 -0.16863750478867123 0 -0.9978253831278259 -0.06591285751511049 0
          -0.9999848741803079 -0.005500128234303745 0 -0.9999657991925242 0.008270456169800133 0
          -0.999645857183493 0.026611279861733755 0 -0.9990052254707311 0.04459326722918545 0
          -0.9981584252598732 0.06066100957559163 0 -0.9971179337493529 0.07586716150892381 0
          -0.99592258543648 0.09021199375646807 0 -0.9947235862167993 0.10259135940219223 0
          -0.9934693069463556 0.11409967640413393 0 -0.9920576914049585 0.12578369101065517 0
          -0.9903177878950926 0.13881887111834057 0 -0.9878616843312541 0.1553360635210566 0
          <InformationKey name="L2_NORM_RANGE" location="vtkDataArray" length="2">
            <Value index="0">
              1
            </Value>
            <Value index="1">
              1
            </Value>
          </InformationKey>
        </DataArray>
        <DataArray type="Float64" Name="Load Magnitude" format="ascii" RangeMin="0" RangeMax="3.076257582677605">
          0 0 0 0 0 0
          0 0 0 0 0 0
          0 0 0 0 0 0
          0 0 0 0 0 0
          0 0 0 0 0 0
          0 0 0 0 0 0
          0 0 0 0 0 0
          0 0 0 0 0 0
          0.1669033695711206 0.5269804575811327 0.8639186525177333 1.177090438333567 1.4664909930380576 1.7321128783457789
          1.9739531799439118 2.1920124027537904 2.3862925738949645 2.5567955120180974 2.7035229016296976 2.826475726241512
          2.9623981694611894 3.0655449843233207 3.076257582677605 2.9945123901814137 2.8203412031667594 2.5537654494127384
          2.194768973674617 1.7433104126676788 1.1992721996110862 0.5626402652213495 0.030876276543656975 0
          0 0 0 0 0 0
          0 0
        </DataArray>
      </PointData>
      <CellData>
      </CellData>
      <Points>
        <DataArray type="Float32" Name="Points" NumberOfComponents="3" format="ascii" RangeMin="1.2526531222684438" RangeMax="1.775336003363371">
          -1.3034929 -1.2052901 0 -1.3198962 -1.0949785 0
          -1.3346516 -0.98443216 0 -1.3480287 -0.87371 0
          -1.3601123 -0.76283914 0 -1.3708639 -0.6518316 0
          -1.3801253 -0.5406908 0 -1.3877387 -0.42942524 0
          -1.3936081 -0.3180548 0 -1.3975787 -0.20660186 0
          -1.3995239 -0.09509519 0 -1.3996783 0.016429812 0
          -1.3956974 0.12781635 0 -1.3826238 0.23837815 0
          -1.3577396 0.34685713 0 -1.3207009 0.45179635 0
          -1.272468 0.5521415 0 -1.215042 0.6475929 0
          -1.1498592 0.7379386 0 -1.0768865 0.8220397 0
          -1.0168749 0.88068044 0 -0.97294134 0.91622746 0
          -0.92718035 0.94939643 0 -0.87985337 0.9802968 0
          -0.8312017 1.0090744 0 -0.7814746 1.0359613 0
          -0.7309484 1.0613266 0 -0.6799298 1.0856966 0
          -0.62867016 1.1095586 0 -0.5770801 1.1326871 0
          -0.52484864 1.1543094 0 -0.4718303 1.1739125 0
          -0.41804814 1.1913084 0 -0.36359403 1.2064714 0
          -0.30857402 1.2194391 0 -0.2530906 1.23026 0
          -0.19723663 1.2389685 0 -0.14109503 1.2455738 0
          -0.08474427 1.2500513 0 -0.028263109 1.2523342 0
          0.02826312 1.2523342 0 0.08474428 1.2500513 0
          0.14109504 1.2455738 0 0.19723664 1.2389685 0
          0.2530906 1.23026 0 0.30857405 1.2194391 0
          0.36359403 1.2064714 0 0.41804814 1.1913083 0
          0.47183034 1.1739125 0 0.52484864 1.1543093 0
          0.57708013 1.1326871 0 0.62867016 1.1095586 0
          0.6799298 1.0856966 0 0.7309484 1.0613266 0
          0.7814746 1.0359613 0 0.8312017 1.0090744 0
          0.87985337 0.9802968 0 0.92718035 0.94939643 0
          0.97294134 0.91622746 0 1.0168749 0.88068044 0
          1.0768865 0.8220397 0 1.1498592 0.7379386 0
          1.215042 0.6475929 0 1.272468 0.5521415 0
          1.3207009 0.45179635 0 1.3577396 0.34685713 0
          1.3826238 0.23837814 0 1.3956974 0.12781635 0
          1.3996783 0.016429804 0 1.3995239 -0.09509519 0
          1.3975787 -0.20660187 0 1.3936081 -0.3180548 0
          1.3877387 -0.42942524 0 1.3801253 -0.5406908 0
          1.3708639 -0.6518316 0 1.3601123 -0.76283914 0
          1.3480287 -0.87371 0 1.3346516 -0.98443216 0
          1.3198962 -1.0949785 0 1.3034929 -1.2052901 0
          <InformationKey name="L2_NORM_RANGE" location="vtkDataArray" length="2">
            <Value index="0">
              1.2526531223
            </Value>
            <Value index="1">
              1.7753360034
            </Value>
          </InformationKey>
        </DataArray>
      </Points>
      <Verts>
        <DataArray type="Int64" Name="connectivity" format="ascii" RangeMin="1e+299" RangeMax="-1e+299">
        </DataArray>
        <DataArray type="Int64" Name="offsets" format="ascii" RangeMin="1e+299" RangeMax="-1e+299">
        </DataArray>
      </Verts>
      <Lines>
        <DataArray type="Int64" Name="connectivity" format="ascii" RangeMin="1e+299" RangeMax="-1e+299">
        </DataArray>
        <DataArray type="Int64" Name="offsets" format="ascii" RangeMin="1e+299" RangeMax="-1e+299">
        </DataArray>
      </Lines>
      <Strips>
        <DataArray type="Int64" Name="connectivity" format="ascii" RangeMin="1e+299" RangeMax="-1e+299">
        </DataArray>
        <DataArray type="Int64" Name="offsets" format="ascii" RangeMin="1e+299" RangeMax="-1e+299">
        </DataArray>
      </Strips>
      <Polys>
        <DataArray type="Int64" Name="connectivity" format="ascii" RangeMin="1e+299" RangeMax="-1e+299">
        </DataArray>
        <DataArray type="Int64" Name="offsets" format="ascii" RangeMin="1e+299" RangeMax="-1e+299">
        </DataArray>
      </Polys>
    </Piece>
  </PolyData>
</VTKFile>
