<?xml version="1.0"?>
<VTKFile type="PolyData" version="0.1" byte_order="LittleEndian" header_type="UInt32" compressor="vtkZLibDataCompressor">
  <PolyData>
    <Piece NumberOfPoints="40" NumberOfVerts="0" NumberOfLines="0" NumberOfStrips="0" NumberOfPolys="0">
      <PointData Normals="Load Orientation">
        <DataArray type="Float64" Name="Load Orientation" NumberOfComponents="3" format="ascii" RangeMin="0.9999999999999998" RangeMax="1.0000000000000002">
          0.8405971135890382 0.5416608649568266 0 0.8403914521802225 0.5419798954780672 0
          0.9032026501713923 0.4292143668650594 0 0.9512328306047542 0.3084738270577701 0
          0.9845606816952583 0.1750436061664865 0 0.9996706114185514 0.025664541025701322 0
          0.9651991783175731 -0.2615158621863719 0 0.800655606198461 -0.5991248619970424 0
          0.6459559434558394 -0.7633746911668453 0 0.5134159891153497 -0.8581398616313701 0
          0.4027729450157683 -0.915299926124396 0 0.36294901337970875 -0.9318090006469653 0
          0.34607847420119386 -0.9382055689957151 0 0.33869245512641144 -0.9408971361633766 0
          0.30342182928289557 -0.9528563341420475 0 0.24775501959796736 -0.9688227135363884 0
          0.19115382547705362 -0.9815600924067197 0 0.13694697015032103 -0.9905783802237191 0
          0.08378104328015584 -0.996484187926175 0 0.028911940560059586 -0.9995819624688371 0
          -0.028911940942927178 -0.999581962457763 0 -0.08378104363961104 -0.9964841878959532 0
          -0.13694697049611063 -0.9905783801759138 0 -0.1911538258134848 -0.9815600923412015 0
          -0.24775501991749607 -0.9688227134546759 0 -0.303421829538086 -0.9528563340607863 0
          -0.3386924551952156 -0.9408971361386095 0 -0.3460784742599018 -0.9382055689740594 0
          -0.3629490135649055 -0.9318090005748291 0 -0.40277294534668856 -0.9152999259787764 0
          -0.5134159894990066 -0.8581398614018324 0 -0.6459559438091553 -0.7633746908678747 0
          -0.8006556065634651 -0.5991248615092599 0 -0.9651991785240419 -0.2615158614243397 0
          -0.9996706114115625 0.025664541297920077 0 -0.9845606816318647 0.17504360652305398 0
          -0.9512328305341105 0.30847382727561234 0 -0.9032026501721429 0.42921436686347986 0
          -0.8403914522743224 0.5419798953321565 0 -0.8405971135979776 0.5416608649429534 0
          <InformationKey name="L2_NORM_RANGE" location="vtkDataArray" length="2">
            <Value index="0">
              1
            </Value>
            <Value index="1">
              1
            </Value>
          </InformationKey>
        </DataArray>
        <DataArray type="Float64" Name="Load Magnitude" format="ascii" RangeMin="0" RangeMax="6.810110927605273">
          0 0 0 0 0 0
          0 0 0 0 0 0
          0 0 0 0 0 0
          0 0 0.02467353513482755 1.3824244664846603 3.228223022765549 4.693882863455888
          5.779403203209011 6.484812098802845 6.810110927605273 6.7552290702847 6.320140218370805 5.5049325246501315
          3.438708239192023 0.30243384464889933 0 0 0 0
          0 0 0 0
        </DataArray>
      </PointData>
      <CellData>
      </CellData>
      <Points>
        <DataArray type="Float32" Name="Points" NumberOfComponents="3" format="ascii" RangeMin="1.2219343497531885" RangeMax="2.037845159039193">
          -1.5030254 -1.3761277 0 -1.6564386 -1.1381469 0
          -1.7939134 -0.89134127 0 -1.8983188 -0.62888366 0
          -1.966746 -0.35493496 0 -1.9951489 -0.07412241 0
          -1.9620491 0.20293522 0 -1.8407829 0.45147508 0
          -1.648263 0.6558202 0 -1.4188741 0.81983036 0
          -1.2357261 0.91963506 0 -1.1111138 0.97129303 0
          -0.9849457 1.0191305 0 -0.8581631 1.0653318 0
          -0.73039967 1.1086526 0 -0.6007611 1.1458356 0
          -0.46918687 1.1754447 0 -0.33614284 1.197579 0
          -0.20209108 1.2124698 0 -0.06743302 1.2200723 0
          0.06743302 1.2200723 0 0.20209108 1.2124698 0
          0.33614284 1.197579 0 0.46918687 1.1754447 0
          0.6007611 1.1458356 0 0.73039967 1.1086526 0
          0.8581631 1.0653318 0 0.9849457 1.0191305 0
          1.1111138 0.97129303 0 1.2357261 0.91963506 0
          1.4188741 0.81983036 0 1.648263 0.6558202 0
          1.8407829 0.45147508 0 1.9620491 0.20293522 0
          1.9951489 -0.07412241 0 1.966746 -0.35493496 0
          1.8983188 -0.62888366 0 1.7939134 -0.89134127 0
          1.6564386 -1.1381469 0 1.5030254 -1.3761277 0
          <InformationKey name="L2_NORM_RANGE" location="vtkDataArray" length="2">
            <Value index="0">
              1.2219343498
            </Value>
            <Value index="1">
              2.037845159
            </Value>
          </InformationKey>
        </DataArray>
      </Points>
      <Verts>
        <DataArray type="Int64" Name="connectivity" format="ascii" RangeMin="1e+299" RangeMax="-1e+299">
        </DataArray>
        <DataArray type="Int64" Name="offsets" format="ascii" RangeMin="1e+299" RangeMax="-1e+299">
        </DataArray>
      </Verts>
      <Lines>
        <DataArray type="Int64" Name="connectivity" format="ascii" RangeMin="1e+299" RangeMax="-1e+299">
        </DataArray>
        <DataArray type="Int64" Name="offsets" format="ascii" RangeMin="1e+299" RangeMax="-1e+299">
        </DataArray>
      </Lines>
      <Strips>
        <DataArray type="Int64" Name="connectivity" format="ascii" RangeMin="1e+299" RangeMax="-1e+299">
        </DataArray>
        <DataArray type="Int64" Name="offsets" format="ascii" RangeMin="1e+299" RangeMax="-1e+299">
        </DataArray>
      </Strips>
      <Polys>
        <DataArray type="Int64" Name="connectivity" format="ascii" RangeMin="1e+299" RangeMax="-1e+299">
        </DataArray>
        <DataArray type="Int64" Name="offsets" format="ascii" RangeMin="1e+299" RangeMax="-1e+299">
        </DataArray>
      </Polys>
    </Piece>
  </PolyData>
</VTKFile>
