<?xml version="1.0"?>
<VTKFile type="PolyData" version="0.1" byte_order="LittleEndian" header_type="UInt32" compressor="vtkZLibDataCompressor">
  <PolyData>
    <Piece NumberOfPoints="80" NumberOfVerts="0" NumberOfLines="0" NumberOfStrips="0" NumberOfPolys="0">
      <PointData Normals="Load Orientation">
        <DataArray type="Float64" Name="Load Orientation" NumberOfComponents="3" format="ascii" RangeMin="0.9999999999999998" RangeMax="1">
          0.9818076670631626 0.18987813169501655 0 0.9755717421106634 0.21968107791788793 0
          0.9669092319182963 0.25512063270376717 0 0.9537850326986108 0.3004897858498853 0
          0.9332278050991502 0.3592852123172101 0 0.9122773666508865 0.40957295601214183 0
          0.9162401311573336 0.40062953218252917 0 0.9327003686570378 0.36065221794275143 0
          0.9472869581531506 0.32038635881221755 0 0.9589644755068836 0.28352625048804164 0
          0.9689960640941586 0.2470761578340354 0 0.9781772790548129 0.20777201626042593 0
          0.9857168106318036 0.16841130970889356 0 0.9919286442207567 0.12679733741041874 0
          0.9969463335854392 0.0780897429279307 0 0.9997076752959755 0.024177757429433767 0
          0.9998528980389245 -0.017151742860829787 0 0.9832387968556364 -0.18232242966207052 0
          0.8836677746795786 -0.4681145842556517 0 0.6719154033177546 -0.7406279030554677 0
          0.41135091315416933 -0.9114770574442513 0 0.28251274678087007 -0.9592635445519276 0
          0.17454871784437304 -0.9846485388700303 0 0.06407119781575342 -0.9979453299707628 0
          -0.04302880114228124 -0.9990738322427717 0 -0.1245007192898652 -0.992219517494141 0
          -0.18568716403524596 -0.9826089136134212 0 -0.2287896506901794 -0.9734758834902207 0
          -0.2526299042176139 -0.9675629858024742 0 -0.2569966752527448 -0.9664122872299561 0
          -0.23941920373512784 -0.970916291388108 0 -0.21042461280712435 -0.9776100870617956 0
          -0.18039601424671528 -0.9835940616147999 0 -0.15234877298217983 -0.9883267938140826 0
          -0.1265551089760553 -0.9919595780030852 0 -0.10254686487372927 -0.9947281741785385 0
          -0.0797128759314127 -0.9968178657160711 0 -0.057436920148413236 -0.9983491374283172 0
          -0.035094879804553586 -0.9993839849684925 0 -0.011999013692657165 -0.9999280092438673 0
          0.01199901255082356 -0.9999280092575691 0 0.03509487871708392 -0.9993839850066807 0
          0.057436919078693034 -0.9983491374898602 0 0.0797128748486185 -0.9968178658026593 0
          0.10254686374767034 -0.9947281742946246 0 0.12655510777695697 -0.9919595781560672 0
          0.15234877168239155 -0.9883267940144427 0 0.18039601283648368 -0.9835940618734434 0
          0.2104246113461666 -0.9776100873762579 0 0.23941920250451187 -0.9709162916915667 0
          0.25699667494641437 -0.966412287311418 0 0.2526299048999668 -0.9675629856243125 0
          0.2287896523703473 -0.9734758830953418 0 0.185687166672018 -0.9826089131151408 0
          0.12450072282405486 -0.9922195170506817 0 0.04302880570981142 -0.9990738320460542 0
          -0.06407119232107422 -0.9979453303235382 0 -0.17454871205056677 -0.9846485398970987 0
          -0.282512740345411 -0.9592635464472349 0 -0.41135090533162394 -0.9114770609745774 0
          -0.6719153952403495 -0.7406279103834833 0 -0.8836677698171983 -0.4681145934344485 0
          -0.9832387956024728 -0.182322436420202 0 -0.9998528980110073 -0.017151744488247574 0
          -0.9997076753191251 0.024177756472241754 0 -0.9969463336682745 0.07808974187039902 0
          -0.991928644332224 0.1267973365384155 0 -0.9857168107637762 0.16841130893645467 0
          -0.9781772792167143 0.20777201549820495 0 -0.9689960642747432 0.24707615712580944 0
          -0.958964475700034 0.2835262498347532 0 -0.9472869583695811 0.3203863581722973 0
          -0.9327003688965565 0.36065221732332003 0 -0.9162401313400171 0.40062953176473165 0
          -0.9122773665349735 0.4095729562703252 0 -0.933227804847554 0.35928521297072014 0
          -0.9537850325570385 0.30048978629924994 0 -0.966909231869946 0.2551206328870149 0
          -0.9755717421245682 0.21968107785613933 0 -0.9818076671217931 0.18987813139185422 0
          <InformationKey name="L2_NORM_RANGE" location="vtkDataArray" length="2">
            <Value index="0">
              1
            </Value>
            <Value index="1">
              1
            </Value>
          </InformationKey>
        </DataArray>
        <DataArray type="Float64" Name="Load Magnitude" format="ascii" RangeMin="0" RangeMax="4.383377909959536">
          0 0 0 0 0 0
          0 0 0 0 0 0
          0 0 0 0 0 0
          0 0 0 0 0 0
          0 0 0 0 0 0
          0.09134465475943904 0.6732529771338139 1.282198447967101 1.8366426132132638 2.3365856753563183 2.7820268272319155
          3.1729644396728007 3.509396687713446 3.791323379320762 4.0187446058103085 4.1916605007675605 4.310071467375107
          4.373977333075845 4.383377909959536 4.338273146907264 4.238663528376338 4.0845500087372715 3.8759334760328796
          3.6128143203771232 3.2951907090239625 2.9230561999304374 2.4964113676093116 2.0152717458870857 1.4796586357036108
          0.8895962201342495 0.2516404591393792 0 0 0 0
          0 0 0 0 0 0
          0 0 0 0 0 0
          0 0 0 0 0 0
          0 0
        </DataArray>
      </PointData>
      <CellData>
      </CellData>
      <Points>
        <DataArray type="Float32" Name="Points" NumberOfComponents="3" format="ascii" RangeMin="0.27152179702518625" RangeMax="2.1388753471380686">
          -1.2023352 -1.7689482 0 -1.2261049 -1.6553471 0
          -1.2536606 -1.5426127 0 -1.2859049 -1.4311471 0
          -1.3241917 -1.3216431 0 -1.3688109 -1.2145433 0
          -1.4158325 -1.1084219 0 -1.4600139 -1.001118 0
          -1.499538 -0.8920126 0 -1.5345867 -0.7813814 0
          -1.5653807 -0.66949004 0 -1.5917783 -0.5564842 0
          -1.6136103 -0.4425083 0 -1.6307428 -0.3277351 0
          -1.6426332 -0.21231328 0 -1.6485682 -0.09644123 0
          -1.648976 0.019594155 0 -1.6374276 0.13452455 0
          -1.5998356 0.24247779 0 -1.5300261 0.33232197 0
          -1.4527806 0.3866831 0 -1.3819914 0.4129366 0
          -1.3083992 0.4302398 0 -1.2333425 0.43927354 0
          -1.1577349 0.44006985 0 -1.0823313 0.43372583 0
          -1.0075419 0.42197847 0 -0.9334564 0.40628037 0
          -0.8599368 0.3880459 0 -0.786683 0.36874261 0
          -0.713303 0.3499399 0 -0.6395002 0.33290154 0
          -0.56521744 0.31809878 0 -0.49052846 0.30549565 0
          -0.41552225 0.29493177 0 -0.3402731 0.28625414 0
          -0.26483968 0.27935073 0 -0.18926911 0.2741559 0
          -0.11360141 0.27065113 0 -0.037873976 0.26886734 0
          0.037873972 0.26886734 0 0.1136014 0.27065113 0
          0.18926911 0.2741559 0 0.26483968 0.27935073 0
          0.3402731 0.28625414 0 0.41552222 0.29493177 0
          0.49052846 0.30549565 0 0.56521744 0.31809878 0
          0.6395002 0.33290154 0 0.713303 0.3499399 0
          0.786683 0.36874261 0 0.8599368 0.3880459 0
          0.9334564 0.40628037 0 1.0075419 0.42197847 0
          1.0823313 0.43372583 0 1.1577349 0.44006985 0
          1.2333425 0.43927354 0 1.3083992 0.4302398 0
          1.3819914 0.4129366 0 1.4527806 0.3866831 0
          1.5300261 0.33232197 0 1.5998356 0.24247779 0
          1.6374276 0.13452455 0 1.648976 0.019594159 0
          1.6485682 -0.096441224 0 1.6426332 -0.21231328 0
          1.6307428 -0.32773507 0 1.6136103 -0.4425083 0
          1.5917783 -0.5564842 0 1.5653807 -0.66949004 0
          1.5345867 -0.78138137 0 1.499538 -0.8920126 0
          1.4600139 -1.001118 0 1.4158325 -1.1084219 0
          1.3688109 -1.2145433 0 1.3241917 -1.3216431 0
          1.2859049 -1.4311471 0 1.2536606 -1.5426127 0
          1.2261049 -1.6553471 0 1.2023352 -1.7689482 0
          <InformationKey name="L2_NORM_RANGE" location="vtkDataArray" length="2">
            <Value index="0">
              0.27152179703
            </Value>
            <Value index="1">
              2.1388753471
            </Value>
          </InformationKey>
        </DataArray>
      </Points>
      <Verts>
        <DataArray type="Int64" Name="connectivity" format="ascii" RangeMin="1e+299" RangeMax="-1e+299">
        </DataArray>
        <DataArray type="Int64" Name="offsets" format="ascii" RangeMin="1e+299" RangeMax="-1e+299">
        </DataArray>
      </Verts>
      <Lines>
        <DataArray type="Int64" Name="connectivity" format="ascii" RangeMin="1e+299" RangeMax="-1e+299">
        </DataArray>
        <DataArray type="Int64" Name="offsets" format="ascii" RangeMin="1e+299" RangeMax="-1e+299">
        </DataArray>
      </Lines>
      <Strips>
        <DataArray type="Int64" Name="connectivity" format="ascii" RangeMin="1e+299" RangeMax="-1e+299">
        </DataArray>
        <DataArray type="Int64" Name="offsets" format="ascii" RangeMin="1e+299" RangeMax="-1e+299">
        </DataArray>
      </Strips>
      <Polys>
        <DataArray type="Int64" Name="connectivity" format="ascii" RangeMin="1e+299" RangeMax="-1e+299">
        </DataArray>
        <DataArray type="Int64" Name="offsets" format="ascii" RangeMin="1e+299" RangeMax="-1e+299">
        </DataArray>
      </Polys>
    </Piece>
  </PolyData>
</VTKFile>
