<VTKFile type="UnstructuredGrid" version="1,0" byte_order="LittleEndian">
<UnstructuredGrid>
<Piece NumberOfPoints="1502" NumberOfCells="1440">
<Points>
<DataArray type="Float64" NumberOfComponents="3" format="ascii">
-0.1100000000000E+01 -0.4304044648606E+01  0.0000000000000E+00
 0.0000000000000E+00 -0.4304044648606E+01  0.0000000000000E+00
 0.1100000000000E+01 -0.4304044648606E+01  0.0000000000000E+00
-0.1426338184892E+01 -0.1495137730994E+01  0.0000000000000E+00
-0.7131690856113E+00 -0.1351817918288E+01  0.0000000000000E+00
 0.7131690992823E+00 -0.1351817920119E+01  0.0000000000000E+00
 0.1426338184892E+01 -0.1495137730994E+01  0.0000000000000E+00
-0.1297471036855E+01  0.8924645033579E+00  0.0000000000000E+00
 0.1297471037589E+01  0.8924645030013E+00  0.0000000000000E+00
-0.7500000000000E+00  0.3449934570704E+00  0.0000000000000E+00
 0.7500000000000E+00  0.3449934570704E+00  0.0000000000000E+00
-0.1045000000000E+01 -0.4304044648606E+01  0.0000000000000E+00
-0.9900000000000E+00 -0.4304044648606E+01  0.0000000000000E+00
-0.9350000000000E+00 -0.4304044648606E+01  0.0000000000000E+00
-0.8800000000000E+00 -0.4304044648606E+01  0.0000000000000E+00
-0.8250000000000E+00 -0.4304044648606E+01  0.0000000000000E+00
-0.7700000000000E+00 -0.4304044648606E+01  0.0000000000000E+00
-0.7150000000000E+00 -0.4304044648606E+01  0.0000000000000E+00
-0.6600000000000E+00 -0.4304044648606E+01  0.0000000000000E+00
-0.6050000000000E+00 -0.4304044648606E+01  0.0000000000000E+00
-0.5500000000000E+00 -0.4304044648606E+01  0.0000000000000E+00
-0.4950000000000E+00 -0.4304044648606E+01  0.0000000000000E+00
-0.4400000000000E+00 -0.4304044648606E+01  0.0000000000000E+00
-0.3850000000000E+00 -0.4304044648606E+01  0.0000000000000E+00
-0.3300000000000E+00 -0.4304044648606E+01  0.0000000000000E+00
-0.2750000000000E+00 -0.4304044648606E+01  0.0000000000000E+00
-0.2200000000000E+00 -0.4304044648606E+01  0.0000000000000E+00
-0.1650000000000E+00 -0.4304044648606E+01  0.0000000000000E+00
-0.1100000000000E+00 -0.4304044648606E+01  0.0000000000000E+00
-0.5500000000000E-01 -0.4304044648606E+01  0.0000000000000E+00
 0.5500000000000E-01 -0.4304044648606E+01  0.0000000000000E+00
 0.1100000000000E+00 -0.4304044648606E+01  0.0000000000000E+00
 0.1650000000000E+00 -0.4304044648606E+01  0.0000000000000E+00
 0.2200000000000E+00 -0.4304044648606E+01  0.0000000000000E+00
 0.2750000000000E+00 -0.4304044648606E+01  0.0000000000000E+00
 0.3300000000000E+00 -0.4304044648606E+01  0.0000000000000E+00
 0.3850000000000E+00 -0.4304044648606E+01  0.0000000000000E+00
 0.4400000000000E+00 -0.4304044648606E+01  0.0000000000000E+00
 0.4950000000000E+00 -0.4304044648606E+01  0.0000000000000E+00
 0.5500000000000E+00 -0.4304044648606E+01  0.0000000000000E+00
 0.6050000000000E+00 -0.4304044648606E+01  0.0000000000000E+00
 0.6600000000000E+00 -0.4304044648606E+01  0.0000000000000E+00
 0.7150000000000E+00 -0.4304044648606E+01  0.0000000000000E+00
 0.7700000000000E+00 -0.4304044648606E+01  0.0000000000000E+00
 0.8250000000000E+00 -0.4304044648606E+01  0.0000000000000E+00
 0.8800000000000E+00 -0.4304044648606E+01  0.0000000000000E+00
 0.9350000000000E+00 -0.4304044648606E+01  0.0000000000000E+00
 0.9900000000000E+00 -0.4304044648606E+01  0.0000000000000E+00
 0.1045000000000E+01 -0.4304044648606E+01  0.0000000000000E+00
-0.1355910848380E+01 -0.1476732672072E+01  0.0000000000000E+00
-0.1285259981017E+01 -0.1459205415754E+01  0.0000000000000E+00
-0.1214394584761E+01 -0.1442566916018E+01  0.0000000000000E+00
-0.1143323993112E+01 -0.1426827745365E+01  0.0000000000000E+00
-0.1072058114862E+01 -0.1411998118171E+01  0.0000000000000E+00
-0.1000607103274E+01 -0.1398087786375E+01  0.0000000000000E+00
-0.9289815514207E+00 -0.1385106053576E+01  0.0000000000000E+00
-0.8571924453329E+00 -0.1373061734396E+01  0.0000000000000E+00
-0.7852510794390E+00 -0.1361963112090E+01  0.0000000000000E+00
-0.6422126030433E+00 -0.1342784468384E+01  0.0000000000000E+00
-0.5711435255488E+00 -0.1334684768748E+01  0.0000000000000E+00
-0.4999736369017E+00 -0.1327524435880E+01  0.0000000000000E+00
-0.4287150862649E+00 -0.1321308491716E+01  0.0000000000000E+00
-0.3573801183139E+00 -0.1316041318931E+01  0.0000000000000E+00
-0.2859812157621E+00 -0.1311726660302E+01  0.0000000000000E+00
-0.2145309892672E+00 -0.1308367596678E+01  0.0000000000000E+00
-0.1430421463503E+00 -0.1305966536203E+01  0.0000000000000E+00
-0.7152752388590E-01 -0.1304525207180E+01  0.0000000000000E+00
 0.6896563986558E-08 -0.1304044648606E+01  0.0000000000000E+00
 0.7152753767778E-01 -0.1304525207365E+01  0.0000000000000E+00
 0.1430421601384E+00 -0.1305966536574E+01  0.0000000000000E+00
 0.2145310030492E+00 -0.1308367597233E+01  0.0000000000000E+00
 0.2859812295354E+00 -0.1311726661042E+01  0.0000000000000E+00
 0.3573801320760E+00 -0.1316041319855E+01  0.0000000000000E+00
 0.4287151000135E+00 -0.1321308492824E+01  0.0000000000000E+00
 0.4999736506343E+00 -0.1327524437170E+01  0.0000000000000E+00
 0.5711435392633E+00 -0.1334684770220E+01  0.0000000000000E+00
 0.6422126167371E+00 -0.1342784470036E+01  0.0000000000000E+00
 0.7852510917199E+00 -0.1361963113902E+01  0.0000000000000E+00
 0.8571924562271E+00 -0.1373061736151E+01  0.0000000000000E+00
 0.9289815609321E+00 -0.1385106055236E+01  0.0000000000000E+00
 0.1000607111408E+01 -0.1398087787904E+01  0.0000000000000E+00
 0.1072058121623E+01 -0.1411998119533E+01  0.0000000000000E+00
 0.1143323998507E+01 -0.1426827746523E+01  0.0000000000000E+00
 0.1214394588795E+01 -0.1442566916938E+01  0.0000000000000E+00
 0.1285259983698E+01 -0.1459205416402E+01  0.0000000000000E+00
 0.1355910849717E+01 -0.1476732672412E+01  0.0000000000000E+00
-0.1579712636672E+01 -0.1257117726587E+01  0.0000000000000E+00
-0.1733164540211E+01 -0.1019175933670E+01  0.0000000000000E+00
-0.1854662117542E+01 -0.7635066404071E+00  0.0000000000000E+00
-0.1941975481337E+01 -0.4942606593644E+00  0.0000000000000E+00
-0.1991516502432E+01 -0.2156092846034E+00  0.0000000000000E+00
-0.1998781287050E+01  0.6736447573279E-01  0.0000000000000E+00
-0.1925316867218E+01  0.3385059547416E+00  0.0000000000000E+00
-0.1756248887890E+01  0.5644442091257E+00  0.0000000000000E+00
-0.1540277150090E+01  0.7471961778048E+00  0.0000000000000E+00
-0.1173981215584E+01  0.9468055532948E+00  0.0000000000000E+00
-0.1048246390832E+01  0.9957805369659E+00  0.0000000000000E+00
-0.9216449825030E+00  0.1042480347406E+01  0.0000000000000E+00
-0.7946812217419E+00  0.1088183183765E+01  0.0000000000000E+00
-0.6661180574429E+00  0.1129122063103E+01  0.0000000000000E+00
-0.5354041844713E+00  0.1162549250252E+01  0.0000000000000E+00
-0.4029695874389E+00  0.1188340213072E+01  0.0000000000000E+00
-0.2693161135181E+00  0.1206817739605E+01  0.0000000000000E+00
-0.1348660417516E+00  0.1218121850014E+01  0.0000000000000E+00
 0.4058846663134E-09  0.1222022719718E+01  0.0000000000000E+00
 0.1348660425620E+00  0.1218121849962E+01  0.0000000000000E+00
 0.2693161143243E+00  0.1206817739504E+01  0.0000000000000E+00
 0.4029695882387E+00  0.1188340212925E+01  0.0000000000000E+00
 0.5354041852619E+00  0.1162549250060E+01  0.0000000000000E+00
 0.6661180582227E+00  0.1129122062868E+01  0.0000000000000E+00
 0.7946812225112E+00  0.1088183183495E+01  0.0000000000000E+00
 0.9216449832687E+00  0.1042480347127E+01  0.0000000000000E+00
 0.1048246391595E+01  0.9957805366789E+00  0.0000000000000E+00
 0.1173981216337E+01  0.9468055529829E+00  0.0000000000000E+00
 0.1540277150686E+01  0.7471961773831E+00  0.0000000000000E+00
 0.1756248888337E+01  0.5644442086587E+00  0.0000000000000E+00
 0.1925316867476E+01  0.3385059542402E+00  0.0000000000000E+00
 0.1998781287072E+01  0.6736447525390E-01  0.0000000000000E+00
 0.1991516502379E+01 -0.2156092849952E+00  0.0000000000000E+00
 0.1941975481197E+01 -0.4942606596555E+00  0.0000000000000E+00
 0.1854662117367E+01 -0.7635066405985E+00  0.0000000000000E+00
 0.1733164540072E+01 -0.1019175933786E+01  0.0000000000000E+00
 0.1579712636620E+01 -0.1257117726658E+01  0.0000000000000E+00
-0.1100000000000E+01 -0.4167858878309E+01  0.0000000000000E+00
-0.1100000000000E+01 -0.4031673085110E+01  0.0000000000000E+00
-0.1100000000000E+01 -0.3895487265942E+01  0.0000000000000E+00
-0.1100000000000E+01 -0.3759301447614E+01  0.0000000000000E+00
-0.1100000000000E+01 -0.3623115632099E+01  0.0000000000000E+00
-0.1100000000000E+01 -0.3486929673705E+01  0.0000000000000E+00
-0.1100000000000E+01 -0.3350743588902E+01  0.0000000000000E+00
-0.1100000000000E+01 -0.3214558196319E+01  0.0000000000000E+00
-0.1100000000000E+01 -0.3078372499853E+01  0.0000000000000E+00
-0.1100009219814E+01 -0.2942186831538E+01  0.0000000000000E+00
-0.1101425067002E+01 -0.2806011978909E+01  0.0000000000000E+00
-0.1107601577287E+01 -0.2669976600093E+01  0.0000000000000E+00
-0.1119747344921E+01 -0.2534345262128E+01  0.0000000000000E+00
-0.1137772499496E+01 -0.2399367495624E+01  0.0000000000000E+00
-0.1161564969771E+01 -0.2265287019052E+01  0.0000000000000E+00
-0.1191325563594E+01 -0.2132404467843E+01  0.0000000000000E+00
-0.1226713953463E+01 -0.2000906688008E+01  0.0000000000000E+00
-0.1267386994665E+01 -0.1870945985496E+01  0.0000000000000E+00
-0.1313508982080E+01 -0.1742820021577E+01  0.0000000000000E+00
-0.1365854654983E+01 -0.1617114507943E+01  0.0000000000000E+00
 0.1365854655064E+01 -0.1617114507984E+01  0.0000000000000E+00
 0.1313508982144E+01 -0.1742820021612E+01  0.0000000000000E+00
 0.1267386994709E+01 -0.1870945985522E+01  0.0000000000000E+00
 0.1226713953493E+01 -0.2000906688028E+01  0.0000000000000E+00
 0.1191325563615E+01 -0.2132404467860E+01  0.0000000000000E+00
 0.1161564969779E+01 -0.2265287019065E+01  0.0000000000000E+00
 0.1137772499496E+01 -0.2399367495636E+01  0.0000000000000E+00
 0.1119747344920E+01 -0.2534345262137E+01  0.0000000000000E+00
 0.1107601577287E+01 -0.2669976600103E+01  0.0000000000000E+00
 0.1101425067003E+01 -0.2806011978917E+01  0.0000000000000E+00
 0.1100009219814E+01 -0.2942186831546E+01  0.0000000000000E+00
 0.1100000000000E+01 -0.3078372499860E+01  0.0000000000000E+00
[...]
<PointData Vectors="'U'">
<DataArray type="Float64" Name="U" NumberOfComponents="2" ComponentName0="U1" ComponentName1="U2" format="ascii">
 0.9545434284519E-37  0.2530902189437E-36
 0.5022790237843E-37 -0.1646501825063E-36
 0.2153261647067E-36 -0.5579099873042E-36
 0.4299464040852E-01 -0.4685799136840E-02
 0.5318430565022E-01 -0.2939896665664E-02
 0.6541644962930E-01 -0.3033962285412E-01
 0.7016422442603E-01 -0.7075126110238E-01
 0.7644587852734E+00 -0.8025317216072E+00
 0.9545874529180E+00 -0.2645890669528E+00
 0.6070428640501E+00 -0.6968453110009E+00
 0.8903449859289E+00 -0.2262030487362E+00
 0.3592724239866E-37  0.3098534134575E-36
 0.3974550871078E-37  0.2494204182635E-36
 0.3884700165089E-37  0.2073328157892E-36
 0.3790242656060E-37  0.1728160256203E-36
 0.3745332703805E-37  0.1425667135412E-36
 0.3746330327439E-37  0.1151474021590E-36
 0.3782333276319E-37  0.8978587317774E-37
 0.3843531607060E-37  0.6600691329602E-37
 0.3922263835751E-37  0.4348895334996E-37
 0.4012958577651E-37  0.2199918783277E-37
 0.4111429928768E-37  0.1349223724978E-38
 0.4213464178681E-37 -0.1859497248366E-37
 0.4317364773520E-37 -0.3795716755623E-37
 0.4421518403424E-37 -0.5684094471281E-37
 0.4524877035041E-37 -0.7533726758438E-37
 0.4626867021622E-37 -0.9352773232255E-37
 0.4727318852816E-37 -0.1114868730626E-36
 0.4826414173624E-37 -0.1292839055333E-36
 0.4924646082999E-37 -0.1469841353229E-36
 0.5121885497763E-37 -0.1823431384699E-36
 0.5223223594466E-37 -0.2001237502956E-36
 0.5328348340615E-37 -0.2180537273855E-36
 0.5439065665992E-37 -0.2361972767340E-36
 0.5557466883683E-37 -0.2546230004825E-36
 0.5685968925821E-37 -0.2734063443253E-36
 0.5827376938020E-37 -0.2926328729130E-36
 0.5984977006652E-37 -0.3124028095799E-36
 0.6162666673194E-37 -0.3328375930346E-36
 0.6364825353004E-37 -0.3540907359993E-36
 0.6597422801410E-37 -0.3763498302660E-36
 0.6868409552253E-37 -0.3998912598632E-36
 0.7186607740813E-37 -0.4250875981302E-36
 0.7563830325665E-37 -0.4524964114011E-36
 0.8014402974680E-37 -0.4830024426376E-36
 0.8551707900180E-37 -0.5181374511666E-36
 0.9167285986694E-37 -0.5609103406977E-36
 0.9712262287816E-37 -0.6185333174678E-36
 0.9081600294242E-37 -0.7151908361487E-36
 0.4384980646831E-01 -0.3033079906359E-03
 0.4510849192061E-01  0.1402430007185E-02
 0.4635898521645E-01  0.1980702874477E-02
 0.4752459945622E-01  0.1945625195181E-02
 0.4860824424967E-01  0.1540373412546E-02
 0.4962415773172E-01  0.8950910817137E-03
 0.5058466026237E-01  0.8538595166623E-04
 0.5149764959489E-01 -0.8419635059536E-03
 0.5236619877076E-01 -0.1856446955008E-02
 0.5396505133975E-01 -0.4053421724899E-02
 0.5472138786258E-01 -0.5182054556757E-02
 0.5545691317195E-01 -0.6329171018242E-02
 0.5617254263460E-01 -0.7492558771422E-02
 0.5686890769500E-01 -0.8670919088178E-02
 0.5754658196702E-01 -0.9864100770090E-02
 0.5820613007869E-01 -0.1107311169778E-01
 0.5884812146466E-01 -0.1230002724698E-01
 0.5947314319094E-01 -0.1354788494285E-01
 0.6008181356859E-01 -0.1482059320314E-01
 0.6067479041023E-01 -0.1612285855061E-01
 0.6125277256121E-01 -0.1746013718210E-01
 0.6181649367158E-01 -0.1883861322880E-01
 0.6236670826321E-01 -0.2026520700663E-01
 0.6290417141273E-01 -0.2174762185823E-01
 0.6342960692378E-01 -0.2329443452744E-01
 0.6394365773141E-01 -0.2491523928909E-01
 0.6444674882962E-01 -0.2662089172734E-01
 0.6493891046271E-01 -0.2842347427224E-01
 0.6589706883816E-01 -0.3242288484818E-01
 0.6636924453986E-01 -0.3465687265560E-01
 0.6683705262729E-01 -0.3707174562178E-01
 0.6730623376148E-01 -0.3970772661922E-01
 0.6778653139980E-01 -0.4262449575185E-01
 0.6829344211207E-01 -0.4591733392822E-01
 0.6884764085589E-01 -0.4975212171045E-01
 0.6946247329126E-01 -0.5444746149306E-01
 0.7006024716644E-01 -0.6070472832240E-01
-0.7539329280485E-01 -0.1102942436326E+00
-0.1045883037362E+00 -0.1689350288803E+00
-0.1040895131406E+00 -0.1848197437134E+00
-0.7265092031155E-01 -0.1821420616220E+00
-0.1078264219336E-01 -0.1723620392068E+00
 0.8263245743296E-01 -0.1650212578495E+00
 0.2130646770993E+00 -0.1905421316702E+00
 0.3730140913856E+00 -0.3026295518995E+00
 0.5733364550171E+00 -0.5222074536037E+00
 0.8303994384242E+00 -0.9290256016057E+00
 0.8721100258313E+00 -0.1016557555271E+01
 0.8952350850133E+00 -0.1062234754611E+01
 0.9010990243423E+00 -0.1064646520015E+01
 0.8917897718294E+00 -0.1022479965574E+01
 0.8741132058854E+00 -0.9375344547869E+00
 0.8555299450800E+00 -0.8169615949397E+00
 0.8418387757560E+00 -0.6741634532544E+00
 0.8370852224996E+00 -0.5352382750219E+00
 0.8421104804030E+00 -0.4305470887533E+00
 0.8537420230942E+00 -0.3616527854467E+00
 0.8683184065389E+00 -0.3132210339921E+00
 0.8835860345357E+00 -0.2791155592659E+00
 0.8985493472138E+00 -0.2560052625148E+00
 0.9126162061421E+00 -0.2418145177216E+00
 0.9253205133861E+00 -0.2351163227290E+00
 0.9361503324207E+00 -0.2347954547682E+00
 0.9447888385871E+00 -0.2399994953755E+00
 0.9510816927413E+00 -0.2500622267214E+00
 0.9498289887986E+00 -0.3046147348167E+00
 0.9287202741132E+00 -0.3502798887207E+00
 0.8898309374791E+00 -0.3936476334267E+00
 0.8317450953094E+00 -0.4208331151303E+00
 0.7584315303594E+00 -0.4311671794072E+00
 0.6700122688657E+00 -0.4290646015136E+00
 0.5639497436643E+00 -0.4076979058945E+00
 0.4369141000027E+00 -0.3553026941608E+00
 0.2943733418375E+00 -0.2417970267441E+00
 0.1105523593215E-02  0.1815479815482E-02
 0.2232892518425E-02  0.3156734020033E-02
 0.3601465291062E-02  0.4355096797736E-02
 0.5211539047778E-02  0.5421059337571E-02
 0.7062687490716E-02  0.6362489341560E-02
 0.9144373098155E-02  0.7178990905395E-02
 0.1144487947998E-01  0.7866432499767E-02
 0.1395083364600E-01  0.8417772053013E-02
 0.1664799220382E-01  0.8822698771741E-02
 0.1952173333808E-01  0.9066012781732E-02
 0.2255445838054E-01  0.9150205954578E-02
 0.2571388444340E-01  0.9114440551224E-02
 0.2894980797793E-01  0.8959975327019E-02
 0.3220260276843E-01  0.8667641303460E-02
 0.3540485862040E-01  0.8216427943024E-02
 0.3847849183442E-01  0.7589006802945E-02
 0.4133556234809E-01  0.6742765969205E-02
 0.4387573976526E-01  0.5592247587820E-02
 0.4588658336557E-01  0.3942384573841E-02
 0.4716630041433E-01  0.1124720403811E-02
 0.5779123581248E-01 -0.5952565278515E-01
 0.5251561558083E-01 -0.5309527836945E-01
 0.4792667223296E-01 -0.4850847642923E-01
 0.4386604728002E-01 -0.4472777432080E-01
 0.4010295191360E-01 -0.4141385246815E-01
 0.3656245494546E-01 -0.3841312359787E-01
 0.3319841444714E-01 -0.3564373314441E-01
 0.2999146964081E-01 -0.3304172889061E-01
 0.2693820664201E-01 -0.3057195854508E-01
 0.2404385864128E-01 -0.2823295689779E-01
 0.2130422373681E-01 -0.2602330080921E-01
 0.1869577579603E-01 -0.2386722355163E-01
 0.1620666403346E-01 -0.2168940099890E-01
 0.1384334454640E-01 -0.1945568520776E-01
 0.1161339614484E-01 -0.1714996751942E-01
 0.9520645426894E-02 -0.1476034799774E-01
 0.7562551293075E-02 -0.1227473496339E-01
 0.5729049039726E-02 -0.9675663040299E-02
 0.3979562605650E-02 -0.6926917669567E-02
 0.2252542090834E-02 -0.3977951413948E-02
 0.6531371257729E+00 -0.6943392257161E+00
 0.6962677763244E+00 -0.6832813338142E+00
 0.7358802276040E+00 -0.6643306839727E+00
 0.7714199979012E+00 -0.6385329879564E+00
 0.8024875258028E+00 -0.6071681737841E+00
 0.8288615452619E+00 -0.5716825435731E+00
 0.8505167969742E+00 -0.5336300200255E+00
 0.8676351034647E+00 -0.4945853348754E+00
 0.8805997947493E+00 -0.4560266611223E+00
 0.8899554632045E+00 -0.4191902863208E+00
 0.8963232612378E+00 -0.3849444428676E+00
 0.9003060392569E+00 -0.3538121560671E+00
 0.9024300898433E+00 -0.3260777023987E+00
 0.9031248669805E+00 -0.3018488601364E+00
 0.9027197232398E+00 -0.2811090379384E+00
 0.9014507329709E+00 -0.2637623679659E+00
 0.8994751203429E+00 -0.2496810472944E+00
 0.8968928467184E+00 -0.2387470172299E+00
 0.8937764633612E+00 -0.2308852238287E+00
 0.5178203237698E+00 -0.6002591066433E+00
 0.4364787373135E+00 -0.5063186043109E+00
 0.3630109750595E+00 -0.4172284725524E+00
 0.2962651162195E+00 -0.3336809810955E+00
 0.2358822742419E+00 -0.2560300178435E+00
 0.1818889818992E+00 -0.1849728393299E+00
 0.1345417737994E+00 -0.1216654620685E+00
 0.9525156279722E-01 -0.6792597718193E-01
 0.6654312685729E-01 -0.2665870789105E-01
 0.8505356823102E+00 -0.2189798368389E+00
 0.8006869561416E+00 -0.2084878559904E+00
 0.7419046752129E+00 -0.1942592810965E+00
 0.6749177857750E+00 -0.1763140327035E+00
 0.5993820922692E+00 -0.1550212366116E+00
 0.5148116125243E+00 -0.1312085725016E+00
 0.4205671778104E+00 -0.1060271103354E+00
 0.3153830869419E+00 -0.8055226851000E-01
 0.1974667258450E+00 -0.5545418002927E-01
 0.6090005417006E+00 -0.7357337360092E+00
 0.6109828552404E+00 -0.7724107453482E+00
 0.6135579805991E+00 -0.8055342042994E+00
 0.6174810030011E+00 -0.8337562567099E+00
 0.6237871859587E+00 -0.8555351278849E+00
 0.6339106551632E+00 -0.8691486799358E+00
 0.6498202736821E+00 -0.8727230332802E+00
 0.6741938643845E+00 -0.8642620795572E+00
 0.7105779723439E+00 -0.8416983636547E+00
 0.9023361667688E+00 -0.2257316620960E+00
 0.9123890009939E+00 -0.2255768511460E+00
 0.9205586455388E+00 -0.2261600237048E+00
 0.9271680443935E+00 -0.2277522413451E+00
 0.9325956017223E+00 -0.2305399246171E+00
 0.9372229728244E+00 -0.2346355907007E+00
 0.9414104329737E+00 -0.2400926905215E+00
 0.9454905215169E+00 -0.2469209885532E+00
 0.9497656363555E+00 -0.2550952580566E+00
 0.9425801581789E-03  0.1411732462650E-02
 0.2132170783394E-02  0.2701413744006E-02
 0.3520588673870E-02  0.3798337327982E-02
 0.5160502689148E-02  0.4769677116496E-02
 0.7042450464680E-02  0.5618702445536E-02
 0.9158173169310E-02  0.6346539955921E-02
 0.1149549107012E-01  0.6949270857283E-02
 0.1404111438673E-01  0.7420104289914E-02
 0.1678086159558E-01  0.7748906952582E-02
 0.1970025476019E-01  0.7920706710797E-02
 0.2278124481344E-01  0.7942206721490E-02
 0.2598977450676E-01  0.7861504815944E-02
 0.2927216335557E-01  0.7689643567662E-02
 0.3256493178896E-01  0.7414042139101E-02
 0.3579644047302E-01  0.7022294698961E-02
 0.3888327367440E-01  0.6505410567628E-02
 0.4173522650807E-01  0.5835594839422E-02
 0.4422477517035E-01  0.4970440698590E-02
 0.4618425285456E-01  0.3816118439327E-02
 0.4677919292707E-01  0.2381044379853E-02
 0.8419983020555E-03  0.1158332684798E-02
 0.2034153994632E-02  0.2286594007468E-02
 0.3452031249390E-02  0.3284045414431E-02
 0.5117429933813E-02  0.4154865423015E-02
 0.7029254098256E-02  0.4910607852051E-02
 0.9177322255113E-02  0.5550032398193E-02
 0.1154981886860E-01  0.6069636195989E-02
 0.1413328296126E-01  0.6462913917328E-02
 0.1691354014450E-01  0.6720512653398E-02
 0.1987548738294E-01  0.6830075835833E-02
 0.2299898893025E-01  0.6802826477180E-02
 0.2624765623767E-01  0.6690208391224E-02
 0.2956578527959E-01  0.6509413793021E-02
 0.3288703934335E-01  0.6254735188380E-02
 0.3613592575442E-01  0.5920746644100E-02
 0.3922546755178E-01  0.5506542690128E-02
 0.4205525930354E-01  0.5001937021437E-02
 0.4449395929403E-01  0.4393904683900E-02
 0.4627809929017E-01  0.3711579730660E-02
 0.4667891379849E-01  0.2928994977980E-02
 0.7797166924697E-03  0.9654133816858E-03
 0.1955349851810E-02  0.1927755707459E-02
 0.3393294321448E-02  0.2806685441755E-02
 0.5083202834474E-02  0.3575696134521E-02
 0.7022505593935E-02  0.4236604544375E-02
 0.9201139117086E-02  0.4788137036086E-02
 0.1160680255280E-01  0.5226237680884E-02
 0.1422589011395E-01  0.5544958345564E-02
 0.1704385208971E-01  0.5736340397223E-02
 0.2004429243805E-01  0.5791424174881E-02
 0.2320451724131E-01  0.5724944876831E-02
 0.2648591760076E-01  0.5588983365198E-02
 0.2983133792418E-01  0.5404601108724E-02
 0.3317231963251E-01  0.5171733642415E-02
 0.3643055318743E-01  0.4890515904645E-02
 0.3951491383298E-01  0.4567120168113E-02
 0.4231948528786E-01  0.4202429397545E-02
 0.4469736799065E-01  0.3809417665614E-02
 0.4637313298242E-01  0.3420529801222E-02
 0.4690515335398E-01  0.2933534227591E-02
 0.7412781841117E-03  0.8043331887764E-03
 0.1897081912476E-02  0.1612104452645E-02
 0.3346107158562E-02  0.2365655208432E-02
 0.5057371998655E-02  0.3029431904515E-02
 0.7021900668040E-02  0.3595059988026E-02
 0.9228878955309E-02  0.4059182839528E-02
 0.1166544208806E-01  0.4417461971519E-02
 0.1431753899196E-01  0.4664524850561E-02
 0.1716989352119E-01  0.4794175247535E-02
 0.2020443708045E-01  0.4800779882340E-02
 0.2339595587837E-01  0.4701486179553E-02
 0.2670393189484E-01  0.4547483302538E-02
 0.3007012258066E-01  0.4362067522821E-02
 0.3342466066143E-01  0.4149291005032E-02
 0.3668716120938E-01  0.3913358546224E-02
 0.3976389542174E-01  0.3664492447895E-02
 0.4254515606931E-01  0.3410083337490E-02
 0.4488113384306E-01  0.3165879663446E-02
 0.4654729523233E-01  0.2932072391054E-02
 0.4733663656182E-01  0.2588338881102E-02
 0.7183452877685E-03  0.6627656503679E-03
 0.1856615184104E-02  0.1328435474699E-02
 0.3310975082914E-02  0.1957062669445E-02
 0.5039737024879E-02  0.2513746415486E-02
 0.7026948423253E-02  0.2983854480578E-02
 0.9259859737121E-02  0.3361296525740E-02
 0.1172479057892E-01  0.3641376497697E-02
 0.1440698563784E-01  0.3819429587436E-02
 0.1729014747711E-01  0.3891070361149E-02
 0.2035441528819E-01  0.3853583431188E-02
 0.2357231633915E-01  0.3725565002997E-02
 0.2690180548776E-01  0.3556350110318E-02
 0.3028392610269E-01  0.3370202449892E-02
 0.3364803916851E-01  0.3173837290133E-02
 0.3691273703148E-01  0.2973689834199E-02
 0.3998340787153E-01  0.2781280910421E-02
 0.4275073476777E-01  0.2604052334792E-02
 0.4507801273302E-01  0.2447066890999E-02
 0.4680831296045E-01  0.2284230006800E-02
 0.4788335788900E-01  0.2010280879365E-02
 0.7058896363587E-03  0.5343791842805E-03
 0.1830579865979E-02  0.1068836222878E-02
 0.3287222388966E-02  0.1576214930050E-02
 0.5029960813535E-02  0.2025929500849E-02
 0.7037124312468E-02  0.2400725060843E-02
 0.9293416876761E-02  0.2692360688072E-02
 0.1178399928308E-01  0.2895780577944E-02
 0.1449318897986E-01  0.3007096286675E-02
 0.1740348744063E-01  0.3023622446634E-02
 0.2049329369564E-01  0.2945038712301E-02
 0.2373323791545E-01  0.2790597218877E-02
 0.2708016417740E-01  0.2607123478084E-02
 0.3047480600708E-01  0.2418842416319E-02
 0.3384642909111E-01  0.2233778956881E-02
 0.3711376063654E-01  0.2058882814254E-02
 0.4018334747914E-01  0.1904369438012E-02
 0.4295130539651E-01  0.1772939625439E-02
 0.4530304822945E-01  0.1656361364863E-02
 0.4714180530502E-01  0.1515459199898E-02
 0.4849128800471E-01  0.1270472375832E-02
 0.7007164478108E-03  0.4155168942944E-03
 0.1815928971041E-02  0.8278002149206E-03
 0.3273571151429E-02  0.1218739430508E-02
 0.5027457843988E-02  0.1563031143882E-02
 0.7051876912574E-02  0.1843273622989E-02
 0.9328922551323E-02  0.2050086163034E-02
 0.1184233451936E-01  0.2178248462268E-02
 0.1457532867836E-01  0.2224670486844E-02
 0.1750913726900E-01  0.2188177674887E-02
 0.2062058306859E-01  0.2070323639411E-02
 0.2387880475307E-01  0.1890378891562E-02
 0.2723996572557E-01  0.1692198201722E-02
 0.3064493302200E-01  0.1499152951534E-02
 0.3402358376256E-01  0.1319411460929E-02
 0.3729596170233E-01  0.1158982133366E-02
 0.4037187637829E-01  0.1024792292300E-02
 0.4315666714591E-01  0.9128271983323E-03
 0.4555992732645E-01  0.8040544111681E-03
 0.4752990889395E-01  0.6560015594274E-03
 0.4912915108741E-01  0.4141907287803E-03
 0.7006984297384E-03  0.3038751559323E-03
 0.1810139546955E-02  0.6014095800903E-03
 0.3268546724067E-02  0.8808739791072E-03
 0.5031456444906E-02  0.1122100009569E-02
 0.7070625416524E-02  0.1309009723539E-02
 0.9365801988488E-02  0.1432062773465E-02
 0.1189918850858E-01  0.1486191976354E-02
 0.1465279873761E-01  0.1469123122661E-02
 0.1760661962328E-01  0.1380979583131E-02
 0.2073613285000E-01  0.1224720203713E-02
 0.2400940576388E-01  0.1019133268779E-02
 0.2738235386190E-01  0.8047768855623E-03
 0.3079644611294E-01  0.6035208389204E-03
 0.3418287543684E-01  0.4227382684890E-03
 0.3746411906091E-01  0.2664020938080E-03
 0.4055498577081E-01  0.1370795437433E-03
 0.4337190148629E-01  0.2412295700984E-04
 0.4584649223832E-01 -0.9847644370917E-04
 0.4795709275078E-01 -0.2714994120792E-03
 0.4977886917235E-01 -0.5284248356741E-03
 0.7043629262396E-03  0.1978988126325E-03
 0.1811190364013E-02  0.3867877868265E-03
 0.3270700260548E-02  0.5594588291066E-03
 0.5041098506684E-02  0.7003283114232E-03
 0.7092777774854E-02  0.7954179447018E-03
 0.9403544139820E-02  0.8358064240008E-03
 0.1195408264067E-01  0.8169233178611E-03
 0.1472518932581E-01  0.7373389089797E-03
 0.1769570344317E-01  0.5982740540297E-03
 0.2084004398304E-01  0.4036964916729E-03
 0.2412562568649E-01  0.1715311190276E-03
 0.2750854238884E-01 -0.6118186971759E-04
 0.3093133703563E-01 -0.2745671568463E-03
 0.3432718196708E-01 -0.4627429645910E-03
 0.3762193534477E-01 -0.6244496510292E-03
 0.4073652182703E-01 -0.7617410531235E-03
 0.4359868717219E-01 -0.8907420296561E-03
 0.4615798156516E-01 -0.1041152337977E-02
 0.4841123779136E-01 -0.1249545885658E-02
 0.5043036142186E-01 -0.1536415069158E-02
 0.7106593844008E-03  0.9647644579687E-04
 0.1817485384380E-02  0.1817508467279E-03
 0.3278716129046E-02  0.2518455116072E-03
 0.5055525060442E-02  0.2951141105953E-03
 0.7117760003471E-02  0.3000182991130E-03
 0.9441710681779E-02  0.2588063308522E-03
 0.1200666451688E-01  0.1677120631482E-03
 0.1479226373937E-01  0.2618821731211E-04
 0.1777635508934E-01 -0.1636162313325E-03
 0.2093259730860E-01 -0.3970430257771E-03
 0.2422815984875E-01 -0.6573079598372E-03
 0.2761972595965E-01 -0.9110230434103E-03
 0.3105136657807E-01 -0.1140655235148E-02
 0.3445881961317E-01 -0.1342270237911E-02
 0.3777202500442E-01 -0.1517613823196E-02
 0.4091851510179E-01 -0.1673063640936E-02
 0.4383645388807E-01 -0.1828762199284E-02
 0.4648897312385E-01 -0.2015648639153E-02
 0.4888229719725E-01 -0.2265403670384E-02
 0.5108059125616E-01 -0.2590533263874E-02
 0.7187770948432E-03 -0.1155343043214E-05
 0.1827638574372E-02 -0.1505951307800E-04
 0.3291211893529E-02 -0.4338927359563E-04
 0.5073559773789E-02 -0.9447677208963E-04
 0.7144511809708E-02 -0.1773596174716E-03
 0.9479231397797E-02 -0.2982939015659E-03
 0.1205579609075E-01 -0.4600278260170E-03
 0.1485283252399E-01 -0.6622193699120E-03
 0.1784740420545E-01 -0.9019583953883E-03
 0.2101273249604E-01 -0.1174172135093E-02
 0.2431613482323E-01 -0.1463421396758E-02
 0.2771526426837E-01 -0.1740022087171E-02
 0.3115611158795E-01 -0.1988993837876E-02
 0.3457741067370E-01 -0.2208579549419E-02
 0.3791354036826E-01 -0.2403492640787E-02
 0.4109848541802E-01 -0.2583803852112E-02
 0.4407921943204E-01 -0.2772264030579E-02
 0.4682812065933E-01 -0.2999442199461E-02
 0.4935515489232E-01 -0.3292450787297E-02
 0.5171194321413E-01 -0.3656925290820E-02
 0.7282089986203E-03 -0.9572484931827E-04
 0.1840831185269E-02 -0.2053851963918E-03
 0.3307509206525E-02 -0.3289998546014E-03
 0.5094921597500E-02 -0.4721180872243E-03
 0.7173185656737E-02 -0.6413316646281E-03
 0.9516661447629E-02 -0.8411959615946E-03
 0.1210242544386E-01 -0.1073262895853E-02
 0.1490826106609E-01 -0.1336262216719E-02
 0.1791067200599E-01 -0.1626613893328E-02
 0.2108274869859E-01 -0.1938996961141E-02
 0.2439231213786E-01 -0.2259421323245E-02
 0.2779833163449E-01 -0.2561900035769E-02
 0.3124907176869E-01 -0.2834097668464E-02
 0.3468661237063E-01 -0.3076490268857E-02
 0.3804995945227E-01 -0.3296549851835E-02
 0.4127917841133E-01 -0.3507376041338E-02
 0.4432840890891E-01 -0.3733223793819E-02
 0.4717603214340E-01 -0.4003411156721E-02
 0.4983152576774E-01 -0.4340631282696E-02
 0.5233412281932E-01 -0.4746422926574E-02
 0.7385421060243E-03 -0.1877701432949E-03
 0.1856324056907E-02 -0.3903761292785E-03
 0.3326849471736E-02 -0.6066420727132E-03
 0.5119034138038E-02 -0.8397786953969E-03
 0.7203423469087E-02 -0.1094058656906E-02
 0.9553827693889E-02 -0.1372238624545E-02
 0.1214653761132E-01 -0.1674555698505E-02
 0.1495869374878E-01 -0.1998779362283E-02
 0.1796647994506E-01 -0.2340719603701E-02
 0.2114315524212E-01 -0.2694914111805E-02
 0.2445737389843E-01 -0.3048863866707E-02
 0.2786973556644E-01 -0.3380223832939E-02
 0.3133107921441E-01 -0.3679302859364E-02
 0.3478707333998E-01 -0.3948736698802E-02