<VTKFile type="UnstructuredGrid" version="1,0" byte_order="LittleEndian">
<UnstructuredGrid>
<Piece NumberOfPoints="5802" NumberOfCells="5680">
<Points>
<DataArray type="Float64" NumberOfComponents="3" format="ascii">
-0.1100000000000E+01 -0.4304044648606E+01  0.0000000000000E+00
 0.0000000000000E+00 -0.4304044648606E+01  0.0000000000000E+00
 0.1100000000000E+01 -0.4304044648606E+01  0.0000000000000E+00
-0.1426338184892E+01 -0.1495137730994E+01  0.0000000000000E+00
-0.7131690856113E+00 -0.1351817918288E+01  0.0000000000000E+00
 0.7131690992823E+00 -0.1351817920119E+01  0.0000000000000E+00
 0.1426338184892E+01 -0.1495137730994E+01  0.0000000000000E+00
-0.1297471036855E+01  0.8924645033579E+00  0.0000000000000E+00
 0.1297471037589E+01  0.8924645030013E+00  0.0000000000000E+00
-0.7500000000000E+00  0.3449934570704E+00  0.0000000000000E+00
 0.7500000000000E+00  0.3449934570704E+00  0.0000000000000E+00
-0.1072500000000E+01 -0.4304044648606E+01  0.0000000000000E+00
-0.1045000000000E+01 -0.4304044648606E+01  0.0000000000000E+00
-0.1017500000000E+01 -0.4304044648606E+01  0.0000000000000E+00
-0.9900000000000E+00 -0.4304044648606E+01  0.0000000000000E+00
-0.9625000000000E+00 -0.4304044648606E+01  0.0000000000000E+00
-0.9350000000000E+00 -0.4304044648606E+01  0.0000000000000E+00
-0.9075000000000E+00 -0.4304044648606E+01  0.0000000000000E+00
-0.8800000000000E+00 -0.4304044648606E+01  0.0000000000000E+00
-0.8525000000000E+00 -0.4304044648606E+01  0.0000000000000E+00
-0.8250000000000E+00 -0.4304044648606E+01  0.0000000000000E+00
-0.7975000000000E+00 -0.4304044648606E+01  0.0000000000000E+00
-0.7700000000000E+00 -0.4304044648606E+01  0.0000000000000E+00
-0.7425000000000E+00 -0.4304044648606E+01  0.0000000000000E+00
-0.7150000000000E+00 -0.4304044648606E+01  0.0000000000000E+00
-0.6875000000000E+00 -0.4304044648606E+01  0.0000000000000E+00
-0.6600000000000E+00 -0.4304044648606E+01  0.0000000000000E+00
-0.6325000000000E+00 -0.4304044648606E+01  0.0000000000000E+00
-0.6050000000000E+00 -0.4304044648606E+01  0.0000000000000E+00
-0.5775000000000E+00 -0.4304044648606E+01  0.0000000000000E+00
-0.5500000000000E+00 -0.4304044648606E+01  0.0000000000000E+00
-0.5225000000000E+00 -0.4304044648606E+01  0.0000000000000E+00
-0.4950000000000E+00 -0.4304044648606E+01  0.0000000000000E+00
-0.4675000000000E+00 -0.4304044648606E+01  0.0000000000000E+00
-0.4400000000000E+00 -0.4304044648606E+01  0.0000000000000E+00
-0.4125000000000E+00 -0.4304044648606E+01  0.0000000000000E+00
-0.3850000000000E+00 -0.4304044648606E+01  0.0000000000000E+00
-0.3575000000000E+00 -0.4304044648606E+01  0.0000000000000E+00
-0.3300000000000E+00 -0.4304044648606E+01  0.0000000000000E+00
-0.3025000000000E+00 -0.4304044648606E+01  0.0000000000000E+00
-0.2750000000000E+00 -0.4304044648606E+01  0.0000000000000E+00
-0.2475000000000E+00 -0.4304044648606E+01  0.0000000000000E+00
-0.2200000000000E+00 -0.4304044648606E+01  0.0000000000000E+00
-0.1925000000000E+00 -0.4304044648606E+01  0.0000000000000E+00
-0.1650000000000E+00 -0.4304044648606E+01  0.0000000000000E+00
-0.1375000000000E+00 -0.4304044648606E+01  0.0000000000000E+00
-0.1100000000000E+00 -0.4304044648606E+01  0.0000000000000E+00
-0.8250000000000E-01 -0.4304044648606E+01  0.0000000000000E+00
-0.5500000000000E-01 -0.4304044648606E+01  0.0000000000000E+00
-0.2750000000000E-01 -0.4304044648606E+01  0.0000000000000E+00
 0.2750000000000E-01 -0.4304044648606E+01  0.0000000000000E+00
 0.5500000000000E-01 -0.4304044648606E+01  0.0000000000000E+00
 0.8250000000000E-01 -0.4304044648606E+01  0.0000000000000E+00
 0.1100000000000E+00 -0.4304044648606E+01  0.0000000000000E+00
 0.1375000000000E+00 -0.4304044648606E+01  0.0000000000000E+00
 0.1650000000000E+00 -0.4304044648606E+01  0.0000000000000E+00
 0.1925000000000E+00 -0.4304044648606E+01  0.0000000000000E+00
 0.2200000000000E+00 -0.4304044648606E+01  0.0000000000000E+00
 0.2475000000000E+00 -0.4304044648606E+01  0.0000000000000E+00
 0.2750000000000E+00 -0.4304044648606E+01  0.0000000000000E+00
 0.3025000000000E+00 -0.4304044648606E+01  0.0000000000000E+00
 0.3300000000000E+00 -0.4304044648606E+01  0.0000000000000E+00
 0.3575000000000E+00 -0.4304044648606E+01  0.0000000000000E+00
 0.3850000000000E+00 -0.4304044648606E+01  0.0000000000000E+00
 0.4125000000000E+00 -0.4304044648606E+01  0.0000000000000E+00
 0.4400000000000E+00 -0.4304044648606E+01  0.0000000000000E+00
 0.4675000000000E+00 -0.4304044648606E+01  0.0000000000000E+00
 0.4950000000000E+00 -0.4304044648606E+01  0.0000000000000E+00
 0.5225000000000E+00 -0.4304044648606E+01  0.0000000000000E+00
 0.5500000000000E+00 -0.4304044648606E+01  0.0000000000000E+00
 0.5775000000000E+00 -0.4304044648606E+01  0.0000000000000E+00
 0.6050000000000E+00 -0.4304044648606E+01  0.0000000000000E+00
 0.6325000000000E+00 -0.4304044648606E+01  0.0000000000000E+00
 0.6600000000000E+00 -0.4304044648606E+01  0.0000000000000E+00
 0.6875000000000E+00 -0.4304044648606E+01  0.0000000000000E+00
 0.7150000000000E+00 -0.4304044648606E+01  0.0000000000000E+00
 0.7425000000000E+00 -0.4304044648606E+01  0.0000000000000E+00
 0.7700000000000E+00 -0.4304044648606E+01  0.0000000000000E+00
 0.7975000000000E+00 -0.4304044648606E+01  0.0000000000000E+00
 0.8250000000000E+00 -0.4304044648606E+01  0.0000000000000E+00
 0.8525000000000E+00 -0.4304044648606E+01  0.0000000000000E+00
 0.8800000000000E+00 -0.4304044648606E+01  0.0000000000000E+00
 0.9075000000000E+00 -0.4304044648606E+01  0.0000000000000E+00
 0.9350000000000E+00 -0.4304044648606E+01  0.0000000000000E+00
 0.9625000000000E+00 -0.4304044648606E+01  0.0000000000000E+00
 0.9900000000000E+00 -0.4304044648606E+01  0.0000000000000E+00
 0.1017500000000E+01 -0.4304044648606E+01  0.0000000000000E+00
 0.1045000000000E+01 -0.4304044648606E+01  0.0000000000000E+00
 0.1072500000000E+01 -0.4304044648606E+01  0.0000000000000E+00
-0.1391152984612E+01 -0.1485826169004E+01  0.0000000000000E+00
-0.1355910848380E+01 -0.1476732672072E+01  0.0000000000000E+00
-0.1320612835817E+01 -0.1467858633912E+01  0.0000000000000E+00
-0.1285259981017E+01 -0.1459205415754E+01  0.0000000000000E+00
-0.1249853511796E+01 -0.1450774398559E+01  0.0000000000000E+00
-0.1214394584761E+01 -0.1442566916018E+01  0.0000000000000E+00
-0.1178884329493E+01 -0.1434584266595E+01  0.0000000000000E+00
-0.1143323993112E+01 -0.1426827745365E+01  0.0000000000000E+00
-0.1107714835036E+01 -0.1419298618073E+01  0.0000000000000E+00
-0.1072058114862E+01 -0.1411998118171E+01  0.0000000000000E+00
-0.1036355114016E+01 -0.1404927450906E+01  0.0000000000000E+00
-0.1000607103274E+01 -0.1398087786375E+01  0.0000000000000E+00
-0.9648154637952E+00 -0.1391480281711E+01  0.0000000000000E+00
-0.9289815514207E+00 -0.1385106053576E+01  0.0000000000000E+00
-0.8931067449032E+00 -0.1378966186997E+01  0.0000000000000E+00
-0.8571924453329E+00 -0.1373061734396E+01  0.0000000000000E+00
-0.8212400755349E+00 -0.1367393714636E+01  0.0000000000000E+00
-0.7852510794390E+00 -0.1361963112090E+01  0.0000000000000E+00
-0.7492269214199E+00 -0.1356770875739E+01  0.0000000000000E+00
-0.6777056485815E+00 -0.1347184849055E+01  0.0000000000000E+00
-0.6422126030433E+00 -0.1342784468384E+01  0.0000000000000E+00
-0.6066914054888E+00 -0.1338617534531E+01  0.0000000000000E+00
-0.5711435255488E+00 -0.1334684768748E+01  0.0000000000000E+00
-0.5355704233029E+00 -0.1330986852489E+01  0.0000000000000E+00
-0.4999736369017E+00 -0.1327524435880E+01  0.0000000000000E+00
-0.4643546817971E+00 -0.1324298126257E+01  0.0000000000000E+00
-0.4287150862649E+00 -0.1321308491716E+01  0.0000000000000E+00
-0.3930563807228E+00 -0.1318556059836E+01  0.0000000000000E+00
-0.3573801183139E+00 -0.1316041318931E+01  0.0000000000000E+00
-0.3216878730590E+00 -0.1313764717124E+01  0.0000000000000E+00
-0.2859812157621E+00 -0.1311726660302E+01  0.0000000000000E+00
-0.2502617257092E+00 -0.1309927512732E+01  0.0000000000000E+00
-0.2145309892672E+00 -0.1308367596678E+01  0.0000000000000E+00
-0.1787905926666E+00 -0.1307047191884E+01  0.0000000000000E+00
-0.1430421463503E+00 -0.1305966536203E+01  0.0000000000000E+00
-0.1072872541886E+00 -0.1305125824139E+01  0.0000000000000E+00
-0.7152752388590E-01 -0.1304525207180E+01  0.0000000000000E+00
-0.3576456602431E-01 -0.1304164793652E+01  0.0000000000000E+00
 0.6896563736758E-08 -0.1304044648606E+01  0.0000000000000E+00
 0.3576457981713E-01 -0.1304164793745E+01  0.0000000000000E+00
 0.7152753767778E-01 -0.1304525207365E+01  0.0000000000000E+00
 0.1072872679789E+00 -0.1305125824417E+01  0.0000000000000E+00
 0.1430421601384E+00 -0.1305966536574E+01  0.0000000000000E+00
 0.1787906064519E+00 -0.1307047192347E+01  0.0000000000000E+00
 0.2145310030492E+00 -0.1308367597233E+01  0.0000000000000E+00
 0.2502617394871E+00 -0.1309927513380E+01  0.0000000000000E+00
 0.2859812295354E+00 -0.1311726661042E+01  0.0000000000000E+00
 0.3216878868270E+00 -0.1313764717956E+01  0.0000000000000E+00
 0.3573801320760E+00 -0.1316041319855E+01  0.0000000000000E+00
 0.3930563944785E+00 -0.1318556060852E+01  0.0000000000000E+00
 0.4287151000135E+00 -0.1321308492824E+01  0.0000000000000E+00
 0.4643546955381E+00 -0.1324298127456E+01  0.0000000000000E+00
 0.4999736506343E+00 -0.1327524437170E+01  0.0000000000000E+00
 0.5355704370268E+00 -0.1330986853870E+01  0.0000000000000E+00
 0.5711435392633E+00 -0.1334684770220E+01  0.0000000000000E+00
 0.6066914191932E+00 -0.1338617536093E+01  0.0000000000000E+00
 0.6422126167371E+00 -0.1342784470036E+01  0.0000000000000E+00
 0.6777056622642E+00 -0.1347184850797E+01  0.0000000000000E+00
 0.7492269343955E+00 -0.1356770877566E+01  0.0000000000000E+00
 0.7852510917199E+00 -0.1361963113902E+01  0.0000000000000E+00
 0.8212400871220E+00 -0.1367393716423E+01  0.0000000000000E+00
 0.8571924562271E+00 -0.1373061736151E+01  0.0000000000000E+00
 0.8931067551055E+00 -0.1378966188709E+01  0.0000000000000E+00
 0.9289815609321E+00 -0.1385106055236E+01  0.0000000000000E+00
 0.9648154726170E+00 -0.1391480283310E+01  0.0000000000000E+00
 0.1000607111408E+01 -0.1398087787904E+01  0.0000000000000E+00
[...]
<PointData Vectors="'U'">
<DataArray type="Float64" Name="U" NumberOfComponents="2" ComponentName0="U1" ComponentName1="U2" format="ascii">
-0.1768106397637E-37 -0.4525887404754E-37
-0.3694992933077E-37 -0.5332216876746E-37
-0.1823862023995E-37  0.4666769965253E-37
-0.4521085345564E-01 -0.5869332034998E-01
-0.3867375906506E-01 -0.2524353635480E-01
-0.2544651723933E-01 -0.9747849187665E-02
-0.1674034650867E-01 -0.1977139073942E-01
-0.7011095795175E+00 -0.3166121403831E+00
-0.1865572288981E+00 -0.4446337002817E+00
-0.6982476357768E+00 -0.3783689814197E+00
-0.8848292307485E-01 -0.6727929456046E+00
-0.7422328665733E-37 -0.2109049758596E-36
-0.7351752224606E-37 -0.1905978646714E-36
-0.7159789175763E-37 -0.1769174601015E-36
-0.6956554248780E-37 -0.1665723865684E-36
-0.6764211036550E-37 -0.1582324730466E-36
-0.6587002665214E-37 -0.1512184028395E-36
-0.6424567598807E-37 -0.1451371314687E-36
-0.6275340814114E-37 -0.1397426817557E-36
-0.6137573308433E-37 -0.1348722093531E-36
-0.6009647128673E-37 -0.1304131074705E-36
-0.5890156872177E-37 -0.1262847120734E-36
-0.5777911221514E-37 -0.1224275143951E-36
-0.5671909117130E-37 -0.1187965069334E-36
-0.5571310401010E-37 -0.1153569025530E-36
-0.5475408225627E-37 -0.1120813030487E-36
-0.5383605243938E-37 -0.1089477657679E-36
-0.5295393869309E-37 -0.1059384515515E-36
-0.5210340236031E-37 -0.1030386589384E-36
-0.5128071518141E-37 -0.1002361243719E-36
-0.5048306190665E-37 -0.9752073233748E-37
-0.4970957555630E-37 -0.9491120460444E-37
-0.4895516949227E-37 -0.9237133357988E-37
-0.4821780207477E-37 -0.8989439507664E-37
-0.4749554416806E-37 -0.8747451569246E-37
-0.4678666779852E-37 -0.8510647100141E-37
-0.4608961666308E-37 -0.8278557134701E-37
-0.4540298023576E-37 -0.8050756401170E-37
-0.4472547250697E-37 -0.7826855921049E-37
-0.4405591405584E-37 -0.7606496816545E-37
-0.4339321715014E-37 -0.7389345351264E-37
-0.4273637318603E-37 -0.7175088765310E-37
-0.4208444212091E-37 -0.6963431745532E-37
-0.4143654373974E-37 -0.6754093620002E-37
-0.4079185031971E-37 -0.6546805978557E-37
-0.4014958053563E-37 -0.6341310667140E-37
-0.3950899449701E-37 -0.6137358219654E-37
-0.3886938954875E-37 -0.5934706360817E-37
-0.3823009700883E-37 -0.5733118883753E-37
-0.3759047956954E-37 -0.5532364672137E-37
-0.3630786640269E-37 -0.5132452224444E-37
-0.3566373801584E-37 -0.4932850420269E-37
-0.3501701811306E-37 -0.4733193633399E-37
-0.3436720740097E-37 -0.4533266058258E-37
-0.3371383382915E-37 -0.4332853518049E-37
-0.3305645350076E-37 -0.4131743100416E-37
-0.3239465200987E-37 -0.3929722840911E-37
-0.3172804614111E-37 -0.3726581287548E-37
-0.3105628615494E-37 -0.3522107212368E-37
-0.3037905847451E-37 -0.3316089195074E-37
-0.2969608893902E-37 -0.3108315171568E-37
-0.2900714666247E-37 -0.2898571940051E-37
-0.2831204851530E-37 -0.2686644470046E-37
-0.2761066448701E-37 -0.2472315141435E-37
-0.2690292401432E-37 -0.2255362862469E-37
-0.2618882339911E-37 -0.2035561879770E-37
-0.2546843452010E-37 -0.1812680388849E-37
-0.2474191480533E-37 -0.1586478401144E-37
-0.2400951765360E-37 -0.1356705289005E-37
-0.2327108547713E-37 -0.1123071233006E-37
-0.2252692823853E-37 -0.8840551626542E-38
-0.2177870302996E-37 -0.6407096568781E-38
-0.2102718805668E-37 -0.3927155102200E-38
-0.2027347646694E-37 -0.1397133179402E-38
-0.1951894216188E-37  0.1187027171515E-38
-0.1876530331505E-37  0.3829990493739E-38
-0.1801470833593E-37  0.6537228661467E-38
-0.1726985138593E-37  0.9315305598079E-38
-0.1653412911867E-37  0.1217229016072E-37
-0.1581185520973E-37  0.1511837140356E-37
-0.1510855633025E-37  0.1816680999175E-37
-0.1443137817376E-37  0.2133545959018E-37
-0.1378962565576E-37  0.2464932995048E-37
-0.1319540490412E-37  0.2814516251219E-37
-0.1266405913127E-37  0.3188025623845E-37
-0.1221285834609E-37  0.3595137664854E-37
-0.1185048007403E-37  0.4054186981346E-37
-0.1151612562548E-37  0.4606892889104E-37
-0.1067994842485E-37  0.5382860125445E-37
-0.4501897936472E-01 -0.5222457483665E-01
-0.4452732955782E-01 -0.4821358668018E-01
-0.4403636053008E-01 -0.4526917533062E-01
-0.4360224875452E-01 -0.4291545717183E-01
-0.4321730818592E-01 -0.4093249466918E-01
-0.4286676724933E-01 -0.3920398897252E-01
-0.4253869393290E-01 -0.3766263394200E-01
-0.4222495086616E-01 -0.3626637671968E-01
-0.4192024304897E-01 -0.3498716141128E-01
-0.4162114932982E-01 -0.3380521060295E-01
-0.4132543477716E-01 -0.3270593887399E-01
-0.4103161105498E-01 -0.3167818717223E-01
-0.4073866600374E-01 -0.3071316297880E-01
-0.4044589605985E-01 -0.2980376439037E-01
-0.4015280437110E-01 -0.2894413923055E-01
-0.3985903852515E-01 -0.2812938315717E-01
-0.3956435513991E-01 -0.2735532715907E-01
-0.3926860422000E-01 -0.2661838126087E-01
-0.3897173582313E-01 -0.2591541408764E-01
-0.3837971427840E-01 -0.2461173767377E-01
-0.3808328199747E-01 -0.2400541283539E-01
-0.3778493695708E-01 -0.2342254223529E-01
-0.3748471125864E-01 -0.2286144481910E-01
-0.3718259902308E-01 -0.2232052110349E-01
-0.3687857634947E-01 -0.2179829548643E-01
-0.3657261583601E-01 -0.2129340310916E-01
-0.3626469160887E-01 -0.2080458066688E-01
-0.3595478158517E-01 -0.2033065685043E-01
-0.3564286881872E-01 -0.1987054466366E-01
-0.3532894212618E-01 -0.1942323477136E-01
-0.3501299623152E-01 -0.1898778979397E-01
-0.3469503203476E-01 -0.1856334011993E-01
-0.3437505662641E-01 -0.1814908044206E-01
-0.3405308312667E-01 -0.1774426700148E-01
-0.3372913069922E-01 -0.1734821585705E-01
-0.3340322395599E-01 -0.1696030110619E-01
-0.3307539262383E-01 -0.1657995408736E-01
-0.3274567100157E-01 -0.1620666289620E-01
-0.3241409731039E-01 -0.1583997230011E-01
-0.3208071295454E-01 -0.1547948402941E-01
-0.3174556165161E-01 -0.1512485736774E-01
-0.3140868846642E-01 -0.1477581005724E-01
-0.3107013878630E-01 -0.1443211953869E-01
-0.3072995720212E-01 -0.1409362447722E-01
-0.3038818632159E-01 -0.1376022659780E-01
-0.3004486564038E-01 -0.1343189295382E-01
-0.2970002998064E-01 -0.1310865816795E-01
-0.2935370845351E-01 -0.1279062757921E-01
-0.2900592314309E-01 -0.1247798053264E-01
-0.2865668792248E-01 -0.1217097420851E-01
-0.2830600755351E-01 -0.1186994809276E-01
-0.2795387671965E-01 -0.1157532869103E-01
-0.2760027976505E-01 -0.1128763490603E-01
-0.2724519156245E-01 -0.1100748373684E-01
-0.2688857966811E-01 -0.1073559486844E-01
-0.2653040964544E-01 -0.1047279161042E-01
-0.2617065509479E-01 -0.1021998935350E-01
-0.2580930880597E-01 -0.9978126874714E-02
-0.2507532611315E-01 -0.9529164442125E-02
-0.2470004628740E-01 -0.9328091522872E-02
-0.2432121883668E-01 -0.9146504174496E-02
-0.2393889511635E-01 -0.8986754528757E-02
-0.2355290438342E-01 -0.8851631727998E-02
-0.2316293167811E-01 -0.8744461070245E-02
-0.2276854107282E-01 -0.8669219818614E-02
-0.2236916542800E-01 -0.8630702944353E-02
-0.2196407126451E-01 -0.8634761480470E-02
-0.2155229430508E-01 -0.8688651967160E-02
-0.2113252822337E-01 -0.8801564699414E-02
-0.2070294461276E-01 -0.8985453806282E-02
-0.2026089797486E-01 -0.9256404935684E-02
-0.1980246872619E-01 -0.9637011162412E-02
-0.1932184197313E-01 -0.1016074504760E-01
-0.1881079402053E-01 -0.1088051096676E-01
-0.1825981926044E-01 -0.1188659170672E-01
-0.1766643873185E-01 -0.1334776141360E-01
-0.1707979408999E-01 -0.1562557156226E-01
-0.1814266206203E+00 -0.1740825372071E+00
-0.2647688286344E+00 -0.2588065952229E+00
-0.3383988929088E+00 -0.3138542306748E+00
-0.4031865471077E+00 -0.3495730760009E+00
-0.4603494189673E+00 -0.3719120778616E+00
-0.5104843802179E+00 -0.3853708462926E+00
-0.5542473124673E+00 -0.3924371431232E+00
-0.5921979814740E+00 -0.3945590794599E+00
-0.6247126744936E+00 -0.3930314969964E+00
-0.6521390569589E+00 -0.3887720921446E+00
-0.6748641529782E+00 -0.3824527909104E+00
-0.6932140473634E+00 -0.3754922372452E+00
-0.7077113296777E+00 -0.3671987938982E+00
-0.7185158628415E+00 -0.3567661804229E+00
-0.7253658226631E+00 -0.3452605288628E+00
-0.7280902106604E+00 -0.3340046608970E+00
-0.7267935701774E+00 -0.3243879265554E+00
-0.7216970729855E+00 -0.3175762128073E+00
-0.7130978725941E+00 -0.3146287389214E+00
-0.6945514149017E+00 -0.3193992856432E+00
-0.6872196267222E+00 -0.3239508770371E+00
-0.6791691761548E+00 -0.3302944472705E+00
-0.6703992893851E+00 -0.3385555231454E+00
-0.6608809619302E+00 -0.3488986863593E+00
-0.6505669889690E+00 -0.3615194390052E+00
-0.6394065851121E+00 -0.3766398752898E+00
-0.6274773302612E+00 -0.3945593240981E+00
-0.6150196877201E+00 -0.4157043801474E+00
-0.6021852714807E+00 -0.4405781548400E+00
-0.5890541446259E+00 -0.4698373602984E+00
-0.5756813098557E+00 -0.5044416185053E+00
-0.5621628776771E+00 -0.5459658900987E+00
-0.5484780571470E+00 -0.5976242265906E+00
-0.5344822796727E+00 -0.6631895342138E+00
-0.5212732163383E+00 -0.7393693960053E+00
-0.5104614604848E+00 -0.8186339432457E+00
-0.5027094266493E+00 -0.8965988182331E+00
-0.4980684209484E+00 -0.9702788540840E+00
-0.4962981388548E+00 -0.1037442585064E+01
-0.4969404272616E+00 -0.1096357242729E+01
-0.4992978996655E+00 -0.1145713952579E+01
-0.5026240701752E+00 -0.1184529614994E+01
-0.5061688845709E+00 -0.1212088827233E+01
-0.5091770699665E+00 -0.1227915490328E+01
-0.5108870843729E+00 -0.1231756399299E+01
-0.5105311883901E+00 -0.1223572849702E+01
-0.5073385363079E+00 -0.1203540156033E+01
-0.5005451175854E+00 -0.1172051436290E+01
-0.4894207597566E+00 -0.1129726791781E+01
-0.4733350575654E+00 -0.1077422566495E+01
-0.4519048816316E+00 -0.1016226524619E+01
-0.4252897106181E+00 -0.9474177955791E+00
-0.3945394091634E+00 -0.8724024213525E+00
-0.3606010085074E+00 -0.7928882251569E+00
-0.3241092660312E+00 -0.7112206955692E+00
-0.2860893319772E+00 -0.6306465779586E+00
-0.2487702355718E+00 -0.5561501671937E+00
-0.2155004199360E+00 -0.4937838396205E+00
-0.1266434642109E+00 -0.3612947599726E+00
-0.7316895335379E-01 -0.3003912377612E+00
-0.2406042025671E-01 -0.2544105515079E+00
 0.2118093780013E-01 -0.2196106342785E+00
 0.6333141555740E-01 -0.1941776057120E+00
 0.1033025103672E+00 -0.1778097867824E+00
 0.1410135225153E+00 -0.1704561895350E+00
 0.1751681513408E+00 -0.1722236724380E+00
 0.2036953157022E+00 -0.1793173692264E+00
 0.2258585097484E+00 -0.1880208564164E+00
 0.2412750627037E+00 -0.1975136503203E+00
 0.2497745520207E+00 -0.2064553475360E+00
 0.2512167604651E+00 -0.2136640934674E+00
 0.2453550901365E+00 -0.2179019789954E+00
 0.2318287597284E+00 -0.2176984602866E+00
 0.2100179218227E+00 -0.2109304373778E+00
 0.1791160797937E+00 -0.1939009656754E+00
 0.1378065504127E+00 -0.1613603194291E+00
 0.8457881347039E-01 -0.1042399562712E+00
-0.8902360533629E-03 -0.1560589977779E-02
-0.1509907664604E-02 -0.2694904200577E-02
-0.2068151973524E-02 -0.3750791952027E-02
-0.2594892019508E-02 -0.4754886091962E-02
-0.3110576383240E-02 -0.5725231467430E-02
-0.3624348173909E-02 -0.6670869778613E-02
-0.4142520758925E-02 -0.7597145245033E-02
-0.4669047167653E-02 -0.8507562147483E-02
-0.5206635565008E-02 -0.9404571431494E-02
-0.5757107314222E-02 -0.1029002842195E-01
-0.6321677284953E-02 -0.1116545397135E-01
-0.6901110258998E-02 -0.1203220054056E-01
-0.7495845081169E-02 -0.1289159393856E-01
-0.8106072080499E-02 -0.1374503451570E-01
-0.8731751229882E-02 -0.1459404735714E-01
-0.9372751301794E-02 -0.1544053886476E-01
-0.1002878587233E-01 -0.1628685263072E-01
-0.1069945441774E-01 -0.1713616247577E-01
-0.1138430032278E-01 -0.1799353729164E-01
-0.1208443256284E-01 -0.1886879066631E-01
-0.1280457929165E-01 -0.1977482781033E-01
-0.1355023145875E-01 -0.2071799918390E-01
-0.1432507113177E-01 -0.2169836801003E-01
-0.1513101928162E-01 -0.2271401931861E-01
-0.1596920713966E-01 -0.2376377013065E-01
-0.1684081489214E-01 -0.2484822786943E-01
-0.1774759419924E-01 -0.2596997325851E-01
-0.1869220241301E-01 -0.2713351612810E-01
-0.1967848409668E-01 -0.2834520475390E-01
-0.2071174532590E-01 -0.2961266214664E-01
-0.2179859027239E-01 -0.3094307996632E-01
-0.2294673606284E-01 -0.3234406264194E-01
-0.2416574629629E-01 -0.3382864329170E-01
-0.2546852062980E-01 -0.3541609975681E-01
-0.2687306495241E-01 -0.3713440430919E-01
-0.2840494610280E-01 -0.3902525005870E-01
-0.3010579980897E-01 -0.4115568266544E-01
-0.3203644017137E-01 -0.4364104090105E-01
-0.3437167394202E-01 -0.4671459720434E-01
-0.3723973786290E-01 -0.5109571433150E-01
-0.2146287136216E-01 -0.1467861518051E-01
-0.2226508550049E-01 -0.1194336478936E-01
-0.2261334156754E-01 -0.1015523184557E-01
-0.2262068986788E-01 -0.8778818849451E-02
-0.2242502884587E-01 -0.7644541219039E-02
-0.2207623474941E-01 -0.6671417415235E-02
-0.2160893215592E-01 -0.5814224209301E-02
-0.2104550281689E-01 -0.5046068520833E-02
-0.2040275333651E-01 -0.4349543715082E-02
-0.1969389298471E-01 -0.3712843486383E-02
-0.1892993544522E-01 -0.3127713946574E-02
-0.1812089146988E-01 -0.2588873770828E-02
-0.1727676724893E-01 -0.2093424248737E-02
-0.1640676899702E-01 -0.1638446702694E-02
-0.1551892485995E-01 -0.1220796684468E-02
-0.1462037422825E-01 -0.8376485334461E-03
-0.1371764572854E-01 -0.4866308872024E-03
-0.1281683788266E-01 -0.1659958292146E-03
-0.1192378137800E-01  0.1250849143224E-03
-0.1104410759778E-01  0.3861328763315E-03
-0.1018311318886E-01  0.6151745528079E-03
-0.9345339241377E-02  0.8095247272196E-03
-0.8533965538854E-02  0.9687447109142E-03
-0.7750769956960E-02  0.1096685065080E-02
-0.6997101543135E-02  0.1196455937244E-02
-0.6274298853470E-02  0.1270319537257E-02
-0.5583689810951E-02  0.1320074287158E-02
-0.4926547285704E-02  0.1347205885726E-02
-0.4304200036529E-02  0.1352964735575E-02
-0.3717936826006E-02  0.1338427634167E-02
-0.3169062220085E-02  0.1304531233264E-02
-0.2658908482922E-02  0.1252100362212E-02
-0.2188834495497E-02  0.1181867690814E-02
-0.1760238909578E-02  0.1094487152023E-02
-0.1374559835222E-02  0.9905407752271E-03
-0.1033278288838E-02  0.8705329072719E-03
-0.7378344835051E-03  0.7348709724071E-03
-0.4896758797879E-03  0.5837834291181E-03
-0.2891331627209E-03  0.4169081942439E-03
-0.1363629882870E-03  0.2346674530906E-03
-0.6960541969220E+00 -0.3894783433302E+00
-0.6935739386285E+00 -0.4016072408509E+00
-0.6907063959226E+00 -0.4146699999669E+00
-0.6874068256778E+00 -0.4286319346883E+00
-0.6836321653291E+00 -0.4434660591148E+00
-0.6793358955555E+00 -0.4591415440686E+00
-0.6744668710277E+00 -0.4756184578960E+00
-0.6689695164353E+00 -0.4928451247369E+00
-0.6627845788817E+00 -0.5107554667353E+00
-0.6558504969613E+00 -0.5292665415215E+00
-0.6481052371001E+00 -0.5482774114298E+00
-0.6394883842486E+00 -0.5676688328619E+00
-0.6299434237071E+00 -0.5873036304988E+00
-0.6194200910731E+00 -0.6070278938922E+00
-0.6078766287928E+00 -0.6266730770101E+00
-0.5952817340251E+00 -0.6460590170162E+00
-0.5816160379072E+00 -0.6649976131353E+00
-0.5668730110501E+00 -0.6832967867234E+00
-0.5510593293343E+00 -0.7007643805278E+00
-0.5341947892617E+00 -0.7172118424852E+00
-0.5163118748090E+00 -0.7324576008451E+00
-0.4974550695617E+00 -0.7463301471063E+00
-0.4776799964488E+00 -0.7586708767167E+00
-0.4570524227200E+00 -0.7693363646898E+00
-0.4356472367182E+00 -0.7782002574798E+00
-0.4135474385310E+00 -0.7851548562275E+00
-0.3908431564004E+00 -0.7901124148629E+00
-0.3676306985673E+00 -0.7930061903214E+00
-0.3440115906526E+00 -0.7937912733495E+00
-0.3200916346760E+00 -0.7924452173147E+00
-0.2959799329220E+00 -0.7889684619917E+00
-0.2717878515706E+00 -0.7833844413793E+00
-0.2476279254848E+00 -0.7757390835280E+00
-0.2236129822675E+00 -0.7660994896556E+00
-0.1998550056151E+00 -0.7545538763020E+00
-0.1764637922173E+00 -0.7412119045782E+00
-0.1535446468011E+00 -0.7262035668390E+00
-0.1311951232860E+00 -0.7096784637447E+00
-0.1094999275692E+00 -0.6918035278290E+00
-0.6854707416835E+00 -0.3672072192717E+00
-0.6701156742266E+00 -0.3545373139495E+00
-0.6524792521287E+00 -0.3403489466776E+00
-0.6328379457954E+00 -0.3247622241030E+00
-0.6113837056149E+00 -0.3079237331302E+00
-0.5882367096172E+00 -0.2899772398545E+00
-0.5634398599058E+00 -0.2710601255413E+00
-0.5369732720446E+00 -0.2513075902302E+00
-0.5087567434409E+00 -0.2308744294508E+00
-0.4787205880257E+00 -0.2099500693264E+00
-0.4468040325327E+00 -0.1887503295420E+00
-0.4128919792848E+00 -0.1675134265099E+00
-0.3768138204325E+00 -0.1464980131520E+00
-0.3383365747952E+00 -0.1259703857950E+00
-0.2971704754150E+00 -0.1061928959572E+00
-0.2529827760663E+00 -0.8741191552338E-01
-0.2054137091736E+00 -0.6984111572922E-01
-0.1540937182375E+00 -0.5363278463945E-01
-0.9864631803377E-01 -0.3882545867901E-01
-0.6996326131323E-01 -0.6261101827066E+00
-0.5329412900640E-01 -0.5807393556248E+00
-0.3812185337248E-01 -0.5365497037152E+00
-0.2420868793350E-01 -0.4935605787726E+00
-0.1143663936421E-01 -0.4517742549751E+00
 0.2332168285348E-03 -0.4111768289784E+00
 0.1077722855791E-01 -0.3717458973864E+00
 0.2012489746876E-01 -0.3334600808786E+00
 0.2815908699751E-01 -0.2963324423826E+00
 0.3479006440241E-01 -0.2604217387156E+00
 0.3995793000962E-01 -0.2258193340226E+00
 0.4353795249501E-01 -0.1926598014007E+00
 0.4533173511414E-01 -0.1611259362220E+00
 0.4505724758432E-01 -0.1314428857303E+00
 0.4235200157093E-01 -0.1038759561891E+00
 0.3678495606217E-01 -0.7872998846463E-01
 0.2785986154495E-01 -0.5634893559971E-01
 0.1500276972874E-01 -0.3711472284730E-01
-0.2478752194600E-02 -0.2144314291626E-01
-0.7044763710425E+00 -0.3744527429309E+00
-0.7098196672613E+00 -0.3701771452133E+00
-0.7142371521266E+00 -0.3656671087319E+00
-0.7177545689367E+00 -0.3610159521938E+00
-0.7204153559374E+00 -0.3563043704727E+00
-0.7222720599443E+00 -0.3516064088544E+00
-0.7233826894297E+00 -0.3469912591475E+00
-0.7238094154774E+00 -0.3425237415111E+00
-0.7236179361011E+00 -0.3382641548558E+00
-0.7228769572113E+00 -0.3342678380565E+00
-0.7216575615314E+00 -0.3305846368334E+00
-0.7200324281314E+00 -0.3272584094519E+00
-0.7180749553690E+00 -0.3243266571146E+00
-0.7158583813528E+00 -0.3218203169941E+00
-0.7134550084758E+00 -0.3197637030216E+00
-0.7109356639592E+00 -0.3181745378047E+00
-0.7083695018081E+00 -0.3170639234121E+00
-0.7058249645904E+00 -0.3164363037955E+00
-0.7033711432399E+00 -0.3162879723356E+00
-0.8089604339424E-01 -0.6771672799143E+00
-0.7384457123538E-01 -0.6799974449959E+00
-0.6747034982242E-01 -0.6811909692635E+00
-0.6188771538610E-01 -0.6806782331153E+00
-0.5721065280517E-01 -0.6783867925047E+00
-0.5355928244380E-01 -0.6742493271905E+00
-0.5106252478421E-01 -0.6682075350392E+00
-0.4985888321078E-01 -0.6602165749560E+00
-0.5009632476906E-01 -0.6502498907147E+00
-0.5193145674934E-01 -0.6383048027163E+00
-0.5552790266457E-01 -0.6244090900489E+00
-0.6105350649288E-01 -0.6086288074553E+00
-0.6867567157198E-01 -0.5910776119073E+00
-0.7855364717194E-01 -0.5719279411301E+00
-0.9082574235957E-01 -0.5514244745233E+00
-0.1055877288452E+00 -0.5299005272087E+00
-0.1228558267251E+00 -0.5077979269894E+00
-0.1424967329733E+00 -0.4856928185620E+00
-0.1641012041424E+00 -0.4643205445935E+00
-0.7476828460334E-03 -0.1294548354081E-02
-0.1410967776279E-02 -0.2491979201780E-02
-0.1971501489462E-02 -0.3557389758706E-02
-0.2505017355796E-02 -0.4569352072502E-02
-0.3024948175708E-02 -0.5543185530656E-02
-0.3542714021098E-02 -0.6489949649149E-02
-0.4064495251720E-02 -0.7415703518865E-02
-0.4594480408310E-02 -0.8324469388630E-02
-0.5135436181405E-02 -0.9219039774530E-02
-0.5689233283068E-02 -0.1010151488314E-01
-0.6257106339973E-02 -0.1097359673508E-01
-0.6839825454148E-02 -0.1183677632682E-01
-0.7437822134252E-02 -0.1269248800010E-01
-0.8051268655960E-02 -0.1354221900185E-01
-0.8680095573635E-02 -0.1438756506173E-01
-0.9324128237802E-02 -0.1523049042630E-01
-0.9983014717103E-02 -0.1607338213525E-01
-0.1065623883309E-01 -0.1691944921491E-01
-0.1134324709368E-01 -0.1777326347610E-01
-0.1204528195540E-01 -0.1864119587439E-01
-0.1276753966557E-01 -0.1953244180771E-01
-0.1351605380068E-01 -0.2045363397588E-01
-0.1429475779459E-01 -0.2140707114126E-01
-0.1510555702499E-01 -0.2239273547946E-01
-0.1594947247428E-01 -0.2341035849586E-01
-0.1682760901035E-01 -0.2446058629508E-01
-0.1774173942313E-01 -0.2554543010653E-01
-0.1869466863145E-01 -0.2666839418116E-01
-0.1969054558655E-01 -0.2783443533933E-01
-0.2073501413872E-01 -0.2905000224527E-01
-0.2183474601210E-01 -0.3032210215797E-01
-0.2299755043133E-01 -0.3165735522358E-01
-0.2423352041054E-01 -0.3306575747659E-01
-0.2555653848521E-01 -0.3456207932854E-01