<VTKFile type="UnstructuredGrid" version="1,0" byte_order="LittleEndian">
<UnstructuredGrid>
<Piece NumberOfPoints="1502" NumberOfCells="1440">
<Points>
<DataArray type="Float64" NumberOfComponents="3" format="ascii">
-0.1100000000000E+01 -0.4304044648606E+01  0.0000000000000E+00
 0.0000000000000E+00 -0.4304044648606E+01  0.0000000000000E+00
 0.1100000000000E+01 -0.4304044648606E+01  0.0000000000000E+00
-0.1426338184892E+01 -0.1495137730994E+01  0.0000000000000E+00
-0.7131690856113E+00 -0.1351817918288E+01  0.0000000000000E+00
 0.7131690992823E+00 -0.1351817920119E+01  0.0000000000000E+00
 0.1426338184892E+01 -0.1495137730994E+01  0.0000000000000E+00
-0.1297471036855E+01  0.8924645033579E+00  0.0000000000000E+00
 0.1297471037589E+01  0.8924645030013E+00  0.0000000000000E+00
-0.7500000000000E+00  0.3449934570704E+00  0.0000000000000E+00
 0.7500000000000E+00  0.3449934570704E+00  0.0000000000000E+00
-0.1045000000000E+01 -0.4304044648606E+01  0.0000000000000E+00
-0.9900000000000E+00 -0.4304044648606E+01  0.0000000000000E+00
-0.9350000000000E+00 -0.4304044648606E+01  0.0000000000000E+00
-0.8800000000000E+00 -0.4304044648606E+01  0.0000000000000E+00
-0.8250000000000E+00 -0.4304044648606E+01  0.0000000000000E+00
-0.7700000000000E+00 -0.4304044648606E+01  0.0000000000000E+00
-0.7150000000000E+00 -0.4304044648606E+01  0.0000000000000E+00
-0.6600000000000E+00 -0.4304044648606E+01  0.0000000000000E+00
-0.6050000000000E+00 -0.4304044648606E+01  0.0000000000000E+00
-0.5500000000000E+00 -0.4304044648606E+01  0.0000000000000E+00
-0.4950000000000E+00 -0.4304044648606E+01  0.0000000000000E+00
-0.4400000000000E+00 -0.4304044648606E+01  0.0000000000000E+00
-0.3850000000000E+00 -0.4304044648606E+01  0.0000000000000E+00
-0.3300000000000E+00 -0.4304044648606E+01  0.0000000000000E+00
-0.2750000000000E+00 -0.4304044648606E+01  0.0000000000000E+00
-0.2200000000000E+00 -0.4304044648606E+01  0.0000000000000E+00
-0.1650000000000E+00 -0.4304044648606E+01  0.0000000000000E+00
-0.1100000000000E+00 -0.4304044648606E+01  0.0000000000000E+00
-0.5500000000000E-01 -0.4304044648606E+01  0.0000000000000E+00
 0.5500000000000E-01 -0.4304044648606E+01  0.0000000000000E+00
 0.1100000000000E+00 -0.4304044648606E+01  0.0000000000000E+00
 0.1650000000000E+00 -0.4304044648606E+01  0.0000000000000E+00
 0.2200000000000E+00 -0.4304044648606E+01  0.0000000000000E+00
 0.2750000000000E+00 -0.4304044648606E+01  0.0000000000000E+00
 0.3300000000000E+00 -0.4304044648606E+01  0.0000000000000E+00
 0.3850000000000E+00 -0.4304044648606E+01  0.0000000000000E+00
 0.4400000000000E+00 -0.4304044648606E+01  0.0000000000000E+00
 0.4950000000000E+00 -0.4304044648606E+01  0.0000000000000E+00
 0.5500000000000E+00 -0.4304044648606E+01  0.0000000000000E+00
 0.6050000000000E+00 -0.4304044648606E+01  0.0000000000000E+00
 0.6600000000000E+00 -0.4304044648606E+01  0.0000000000000E+00
 0.7150000000000E+00 -0.4304044648606E+01  0.0000000000000E+00
 0.7700000000000E+00 -0.4304044648606E+01  0.0000000000000E+00
 0.8250000000000E+00 -0.4304044648606E+01  0.0000000000000E+00
 0.8800000000000E+00 -0.4304044648606E+01  0.0000000000000E+00
 0.9350000000000E+00 -0.4304044648606E+01  0.0000000000000E+00
 0.9900000000000E+00 -0.4304044648606E+01  0.0000000000000E+00
 0.1045000000000E+01 -0.4304044648606E+01  0.0000000000000E+00
-0.1355910848380E+01 -0.1476732672072E+01  0.0000000000000E+00
-0.1285259981017E+01 -0.1459205415754E+01  0.0000000000000E+00
-0.1214394584761E+01 -0.1442566916018E+01  0.0000000000000E+00
-0.1143323993112E+01 -0.1426827745365E+01  0.0000000000000E+00
-0.1072058114862E+01 -0.1411998118171E+01  0.0000000000000E+00
-0.1000607103274E+01 -0.1398087786375E+01  0.0000000000000E+00
-0.9289815514207E+00 -0.1385106053576E+01  0.0000000000000E+00
-0.8571924453329E+00 -0.1373061734396E+01  0.0000000000000E+00
-0.7852510794390E+00 -0.1361963112090E+01  0.0000000000000E+00
-0.6422126030433E+00 -0.1342784468384E+01  0.0000000000000E+00
-0.5711435255488E+00 -0.1334684768748E+01  0.0000000000000E+00
-0.4999736369017E+00 -0.1327524435880E+01  0.0000000000000E+00
-0.4287150862649E+00 -0.1321308491716E+01  0.0000000000000E+00
-0.3573801183139E+00 -0.1316041318931E+01  0.0000000000000E+00
-0.2859812157621E+00 -0.1311726660302E+01  0.0000000000000E+00
-0.2145309892672E+00 -0.1308367596678E+01  0.0000000000000E+00
-0.1430421463503E+00 -0.1305966536203E+01  0.0000000000000E+00
-0.7152752388590E-01 -0.1304525207180E+01  0.0000000000000E+00
 0.6896563986558E-08 -0.1304044648606E+01  0.0000000000000E+00
 0.7152753767778E-01 -0.1304525207365E+01  0.0000000000000E+00
 0.1430421601384E+00 -0.1305966536574E+01  0.0000000000000E+00
 0.2145310030492E+00 -0.1308367597233E+01  0.0000000000000E+00
 0.2859812295354E+00 -0.1311726661042E+01  0.0000000000000E+00
 0.3573801320760E+00 -0.1316041319855E+01  0.0000000000000E+00
 0.4287151000135E+00 -0.1321308492824E+01  0.0000000000000E+00
 0.4999736506343E+00 -0.1327524437170E+01  0.0000000000000E+00
 0.5711435392633E+00 -0.1334684770220E+01  0.0000000000000E+00
 0.6422126167371E+00 -0.1342784470036E+01  0.0000000000000E+00
 0.7852510917199E+00 -0.1361963113902E+01  0.0000000000000E+00
 0.8571924562271E+00 -0.1373061736151E+01  0.0000000000000E+00
 0.9289815609321E+00 -0.1385106055236E+01  0.0000000000000E+00
 0.1000607111408E+01 -0.1398087787904E+01  0.0000000000000E+00
 0.1072058121623E+01 -0.1411998119533E+01  0.0000000000000E+00
 0.1143323998507E+01 -0.1426827746523E+01  0.0000000000000E+00
 0.1214394588795E+01 -0.1442566916938E+01  0.0000000000000E+00
 0.1285259983698E+01 -0.1459205416402E+01  0.0000000000000E+00
 0.1355910849717E+01 -0.1476732672412E+01  0.0000000000000E+00
-0.1579712636672E+01 -0.1257117726587E+01  0.0000000000000E+00
-0.1733164540211E+01 -0.1019175933670E+01  0.0000000000000E+00
-0.1854662117542E+01 -0.7635066404071E+00  0.0000000000000E+00
-0.1941975481337E+01 -0.4942606593644E+00  0.0000000000000E+00
-0.1991516502432E+01 -0.2156092846034E+00  0.0000000000000E+00
-0.1998781287050E+01  0.6736447573279E-01  0.0000000000000E+00
-0.1925316867218E+01  0.3385059547416E+00  0.0000000000000E+00
-0.1756248887890E+01  0.5644442091257E+00  0.0000000000000E+00
-0.1540277150090E+01  0.7471961778048E+00  0.0000000000000E+00
-0.1173981215584E+01  0.9468055532948E+00  0.0000000000000E+00
-0.1048246390832E+01  0.9957805369659E+00  0.0000000000000E+00
-0.9216449825030E+00  0.1042480347406E+01  0.0000000000000E+00
-0.7946812217419E+00  0.1088183183765E+01  0.0000000000000E+00
-0.6661180574429E+00  0.1129122063103E+01  0.0000000000000E+00
-0.5354041844713E+00  0.1162549250252E+01  0.0000000000000E+00
-0.4029695874389E+00  0.1188340213072E+01  0.0000000000000E+00
-0.2693161135181E+00  0.1206817739605E+01  0.0000000000000E+00
-0.1348660417516E+00  0.1218121850014E+01  0.0000000000000E+00
 0.4058846663134E-09  0.1222022719718E+01  0.0000000000000E+00
 0.1348660425620E+00  0.1218121849962E+01  0.0000000000000E+00
 0.2693161143243E+00  0.1206817739504E+01  0.0000000000000E+00
 0.4029695882387E+00  0.1188340212925E+01  0.0000000000000E+00
 0.5354041852619E+00  0.1162549250060E+01  0.0000000000000E+00
 0.6661180582227E+00  0.1129122062868E+01  0.0000000000000E+00
 0.7946812225112E+00  0.1088183183495E+01  0.0000000000000E+00
 0.9216449832687E+00  0.1042480347127E+01  0.0000000000000E+00
 0.1048246391595E+01  0.9957805366789E+00  0.0000000000000E+00
 0.1173981216337E+01  0.9468055529829E+00  0.0000000000000E+00
 0.1540277150686E+01  0.7471961773831E+00  0.0000000000000E+00
 0.1756248888337E+01  0.5644442086587E+00  0.0000000000000E+00
 0.1925316867476E+01  0.3385059542402E+00  0.0000000000000E+00
 0.1998781287072E+01  0.6736447525390E-01  0.0000000000000E+00
 0.1991516502379E+01 -0.2156092849952E+00  0.0000000000000E+00
 0.1941975481197E+01 -0.4942606596555E+00  0.0000000000000E+00
 0.1854662117367E+01 -0.7635066405985E+00  0.0000000000000E+00
 0.1733164540072E+01 -0.1019175933786E+01  0.0000000000000E+00
 0.1579712636620E+01 -0.1257117726658E+01  0.0000000000000E+00
-0.1100000000000E+01 -0.4167858878309E+01  0.0000000000000E+00
-0.1100000000000E+01 -0.4031673085110E+01  0.0000000000000E+00
-0.1100000000000E+01 -0.3895487265942E+01  0.0000000000000E+00
-0.1100000000000E+01 -0.3759301447614E+01  0.0000000000000E+00
-0.1100000000000E+01 -0.3623115632099E+01  0.0000000000000E+00
-0.1100000000000E+01 -0.3486929673705E+01  0.0000000000000E+00
-0.1100000000000E+01 -0.3350743588902E+01  0.0000000000000E+00
-0.1100000000000E+01 -0.3214558196319E+01  0.0000000000000E+00
-0.1100000000000E+01 -0.3078372499853E+01  0.0000000000000E+00
-0.1100009219814E+01 -0.2942186831538E+01  0.0000000000000E+00
-0.1101425067002E+01 -0.2806011978909E+01  0.0000000000000E+00
-0.1107601577287E+01 -0.2669976600093E+01  0.0000000000000E+00
-0.1119747344921E+01 -0.2534345262128E+01  0.0000000000000E+00
-0.1137772499496E+01 -0.2399367495624E+01  0.0000000000000E+00
-0.1161564969771E+01 -0.2265287019052E+01  0.0000000000000E+00
-0.1191325563594E+01 -0.2132404467843E+01  0.0000000000000E+00
-0.1226713953463E+01 -0.2000906688008E+01  0.0000000000000E+00
-0.1267386994665E+01 -0.1870945985496E+01  0.0000000000000E+00
-0.1313508982080E+01 -0.1742820021577E+01  0.0000000000000E+00
-0.1365854654983E+01 -0.1617114507943E+01  0.0000000000000E+00
 0.1365854655064E+01 -0.1617114507984E+01  0.0000000000000E+00
 0.1313508982144E+01 -0.1742820021612E+01  0.0000000000000E+00
 0.1267386994709E+01 -0.1870945985522E+01  0.0000000000000E+00
 0.1226713953493E+01 -0.2000906688028E+01  0.0000000000000E+00
 0.1191325563615E+01 -0.2132404467860E+01  0.0000000000000E+00
 0.1161564969779E+01 -0.2265287019065E+01  0.0000000000000E+00
 0.1137772499496E+01 -0.2399367495636E+01  0.0000000000000E+00
 0.1119747344920E+01 -0.2534345262137E+01  0.0000000000000E+00
 0.1107601577287E+01 -0.2669976600103E+01  0.0000000000000E+00
 0.1101425067003E+01 -0.2806011978917E+01  0.0000000000000E+00
 0.1100009219814E+01 -0.2942186831546E+01  0.0000000000000E+00
 0.1100000000000E+01 -0.3078372499860E+01  0.0000000000000E+00
[...]
<PointData Vectors="'U'">
<DataArray type="Float64" Name="U" NumberOfComponents="2" ComponentName0="U1" ComponentName1="U2" format="ascii">
-0.6967945534641E-37 -0.1817563917575E-36
-0.5087545133229E-37 -0.1413128334871E-37
-0.6475953277500E-37  0.1692467794686E-36
 0.1864085940022E-01 -0.1830387610986E-01
 0.2739788231380E-01 -0.9174269057275E-02
 0.4108533025731E-01 -0.2563781650781E-01
 0.4734870207449E-01 -0.5935089885677E-01
 0.2205284013465E+00 -0.4642584573923E+00
 0.7220305731938E+00 -0.3017059043440E+00
 0.1286552353298E+00 -0.6666904581198E+00
 0.7096614340494E+00 -0.3552258840659E+00
 0.6001322605663E-37 -0.1456248719503E-37
 0.5033608993510E-37 -0.7703672566423E-38
 0.4423452548614E-37 -0.7765603298734E-38
 0.3843833418271E-37 -0.9019120823183E-38
 0.3259448806431E-37 -0.1030767196469E-37
 0.2671300249660E-37 -0.1137060258926E-37
 0.2083482134288E-37 -0.1217272922131E-37
 0.1498828881600E-37 -0.1274142616418E-37
 0.9188755406212E-38 -0.1311941290975E-37
 0.3443806163825E-38 -0.1334965162994E-37
-0.2220562034270E-38 -0.1347506188145E-37
-0.7826412286426E-38 -0.1354451302238E-37
-0.1337773711972E-37 -0.1358329469731E-37
-0.1887687015176E-37 -0.1361215115093E-37
-0.2432606145125E-37 -0.1364669240173E-37
-0.2972724974175E-37 -0.1369771315529E-37
-0.3508195029985E-37 -0.1377151455531E-37
-0.4039121758380E-37 -0.1387020243249E-37
-0.4565565417622E-37 -0.1399195976853E-37
-0.5605044349793E-37 -0.1427919351346E-37
-0.6118016928086E-37 -0.1442340808296E-37
-0.6626392833869E-37 -0.1454847626951E-37
-0.7130082185145E-37 -0.1463586771115E-37
-0.7628976379168E-37 -0.1466399386119E-37
-0.8122943491959E-37 -0.1460816682355E-37
-0.8611814778596E-37 -0.1444046822152E-37
-0.9095356801681E-37 -0.1412952115058E-37
-0.9573221568865E-37 -0.1364025173631E-37
-0.1004496628239E-36 -0.1293383338671E-37
-0.1051254481764E-36 -0.1179154101774E-37
-0.1097159247878E-36 -0.1031938612086E-37
-0.1141934848852E-36 -0.8468612574360E-38
-0.1185141330194E-36 -0.6199013932075E-38
-0.1226080379614E-36 -0.3510707820977E-38
-0.1263831772147E-36 -0.5426236965909E-39
-0.1298233518584E-36  0.2085064782445E-38
-0.1337088964227E-36  0.1850685172286E-38
-0.1451187410784E-36 -0.1351449557054E-37
 0.1923649041809E-01 -0.1301106533878E-01
 0.2025542922856E-01 -0.1048067937757E-01
 0.2129870774568E-01 -0.9110361694318E-02
 0.2228713613689E-01 -0.8379913657710E-02
 0.2322086412211E-01 -0.8044979589916E-02
 0.2411170129281E-01 -0.7974667195070E-02
 0.2497026143473E-01 -0.8092503368628E-02
 0.2580342759334E-01 -0.8350720876694E-02
 0.2661392000010E-01 -0.8717901832593E-02
 0.2815833023887E-01 -0.9691813816588E-02
 0.2891003552530E-01 -0.1024790262588E-01
 0.2965405240254E-01 -0.1083959552407E-01
 0.3039082737981E-01 -0.1146161447300E-01
 0.3112046690189E-01 -0.1210975387514E-01
 0.3184291441671E-01 -0.1278112328761E-01
 0.3255798248577E-01 -0.1347409761483E-01
 0.3326539023850E-01 -0.1418822984039E-01
 0.3396480376358E-01 -0.1492416478382E-01
 0.3465588101781E-01 -0.1568357102238E-01
 0.3533831414384E-01 -0.1646909107953E-01
 0.3601186688512E-01 -0.1728431196525E-01
 0.3667640416939E-01 -0.1813375704212E-01
 0.3733191189618E-01 -0.1902290182132E-01
 0.3797850693000E-01 -0.1995822034292E-01
 0.3861643156486E-01 -0.2094726703690E-01
 0.3924602945398E-01 -0.2199879846807E-01
 0.3986764830397E-01 -0.2312296434959E-01
 0.4048156026365E-01 -0.2433118958872E-01
 0.4169684677265E-01 -0.2709111692664E-01
 0.4230753976716E-01 -0.2868753073297E-01
 0.4291976587462E-01 -0.3045602308003E-01
 0.4353895509557E-01 -0.3243707893103E-01
 0.4417482180245E-01 -0.3469114679269E-01
 0.4484249021300E-01 -0.3731462751379E-01
 0.4556123274605E-01 -0.4047433193841E-01
 0.4634102186247E-01 -0.4448805852702E-01
 0.4709813631856E-01 -0.5004978323144E-01
-0.1324136352933E+00 -0.1315510591640E+00
-0.1968283456496E+00 -0.1911013486557E+00
-0.2313251271290E+00 -0.2036171779956E+00
-0.2349147306845E+00 -0.1953727540955E+00
-0.2103931873213E+00 -0.1788994557957E+00
-0.1598831605957E+00 -0.1639569989895E+00
-0.8575634184043E-01 -0.1682601794813E+00
 0.2312823464127E-02 -0.2133820522702E+00
 0.1008958506623E+00 -0.3035083081657E+00
 0.2875610366403E+00 -0.5852365385081E+00
 0.3632326410807E+00 -0.7372785177537E+00
 0.4326103723923E+00 -0.8902413513545E+00
 0.4879877547118E+00 -0.1024231032712E+01
 0.5233571025644E+00 -0.1126585134855E+01
 0.5394802133678E+00 -0.1188152117355E+01
 0.5418894111672E+00 -0.1203834433220E+01
 0.5368820965251E+00 -0.1172220611306E+01
 0.5306722925937E+00 -0.1095449302565E+01
 0.5291807882902E+00 -0.9795682722388E+00
 0.5372422319884E+00 -0.8358298630053E+00
 0.5555991631516E+00 -0.6841628533445E+00
 0.5794071496583E+00 -0.5585589837591E+00
 0.6037640790327E+00 -0.4729351809846E+00
 0.6282819713603E+00 -0.4135643146457E+00
 0.6521155507393E+00 -0.3711516747076E+00
 0.6738427668227E+00 -0.3409859351938E+00
 0.6925519878680E+00 -0.3201583670395E+00
 0.7085959676667E+00 -0.3072534557750E+00
 0.7407246586048E+00 -0.3068494308047E+00
 0.7448213335273E+00 -0.3255936767759E+00
 0.7335712161047E+00 -0.3504606136974E+00
 0.7049519802566E+00 -0.3712938322405E+00
 0.6591638836133E+00 -0.3836813516238E+00
 0.5950170002772E+00 -0.3870163269080E+00
 0.5095265311178E+00 -0.3732716236171E+00
 0.3989055232768E+00 -0.3296250694393E+00
 0.2673993315763E+00 -0.2248971842788E+00
 0.3470591483611E-03  0.5215352350355E-03
 0.8304434107581E-03  0.9124287715692E-03
 0.1502271378256E-02  0.1241256937263E-02
 0.2349841915010E-02  0.1503291171471E-02
 0.3364051913663E-02  0.1695594730913E-02
 0.4534477334768E-02  0.1813240994325E-02
 0.5851264582359E-02  0.1849733375944E-02
 0.7304518171378E-02  0.1796432066952E-02
 0.8884297023661E-02  0.1641283215118E-02
 0.1057988123339E-01  0.1364556186371E-02
 0.1237390987390E-01  0.9517051280064E-03
 0.1423451133286E-01  0.4172966345932E-03
 0.1611940088995E-01 -0.2375083126104E-03
 0.1798042080121E-01 -0.1027168237865E-02
 0.1976108328602E-01 -0.1973986560609E-02
 0.2139304230863E-01 -0.3102255922250E-02
 0.2279520885652E-01 -0.4457663874365E-02
 0.2387154975985E-01 -0.6130889284365E-02
 0.2441359127118E-01 -0.8328521889987E-02
 0.2423461537900E-01 -0.1173965191418E-01
 0.3617586321943E-01 -0.4877069491773E-01
 0.3206203691505E-01 -0.4281432074055E-01
 0.2869411410678E-01 -0.3863065907604E-01
 0.2589790424276E-01 -0.3521894833560E-01
 0.2343567939281E-01 -0.3225864136301E-01
 0.2122212309175E-01 -0.2960634221346E-01
 0.1919789995886E-01 -0.2718706977080E-01
 0.1732747982747E-01 -0.2494584039975E-01
 0.1559066178892E-01 -0.2285001001438E-01
 0.1397595630891E-01 -0.2089471224281E-01
 0.1246614824302E-01 -0.1907961497039E-01
 0.1103249705400E-01 -0.1735199808656E-01
 0.9659825581402E-02 -0.1565038992289E-01
 0.8349048631379E-02 -0.1394299954312E-01
 0.7102213368210E-02 -0.1221419919350E-01
 0.5918571899514E-02 -0.1045269575714E-01
 0.4792629739329E-02 -0.8647882912637E-02
 0.3713009120560E-02 -0.6785912315879E-02
 0.2645869016348E-02 -0.4840098817637E-02
 0.1539896487261E-02 -0.2773513918374E-02
 0.1716819239253E+00 -0.7022633428050E+00
 0.2168430750599E+00 -0.7321327405661E+00
 0.2635551049670E+00 -0.7548328492364E+00
 0.3109624287073E+00 -0.7694820547012E+00
 0.3581748340078E+00 -0.7756250519358E+00
 0.4043162292461E+00 -0.7731535901826E+00
 0.4485557760896E+00 -0.7623042954551E+00
 0.4901375637981E+00 -0.7436621728612E+00
 0.5284127763389E+00 -0.7181335914288E+00
 0.5628726159592E+00 -0.6869075790681E+00
 0.5931818914836E+00 -0.6514030159062E+00
 0.6192086923967E+00 -0.6131895706105E+00
 0.6410442757682E+00 -0.5738852465475E+00
 0.6589857671522E+00 -0.5349559890256E+00
 0.6734640722872E+00 -0.4975584663359E+00
 0.6849544293500E+00 -0.4625333144834E+00
 0.6939136448881E+00 -0.4304471044541E+00
 0.7007498074819E+00 -0.4016719950467E+00
 0.7058264640405E+00 -0.3764769590018E+00
 0.9020923075903E-01 -0.5742325617074E+00
 0.5829204937462E-01 -0.4873164662619E+00
 0.3099312454256E-01 -0.4054721333417E+00
 0.7712729931260E-02 -0.3284695063099E+00
-0.1073569218513E-01 -0.2562964041290E+00
-0.2339484262089E-01 -0.1895059874109E+00
-0.2915867901610E-01 -0.1292797140464E+00
-0.2557034653160E-01 -0.7737156567374E-01
-0.8776676118468E-02 -0.3615539814102E-01
 0.6794220569015E+00 -0.3322759692057E+00
 0.6404487272880E+00 -0.3047665976579E+00
 0.5943384401112E+00 -0.2730748724497E+00
 0.5420050140263E+00 -0.2379131203846E+00
 0.4829379710626E+00 -0.2001800915482E+00
 0.4164242519486E+00 -0.1611892197599E+00
 0.3414858648667E+00 -0.1226544724205E+00
 0.2560905615481E+00 -0.8633550370656E-01
 0.1571881352534E+00 -0.5372600421604E-01
 0.1141058029556E+00 -0.6759442362511E+00
 0.1018906075792E+00 -0.6793447857907E+00
 0.9303643814463E-01 -0.6760924095885E+00
 0.8858168278803E-01 -0.6656542257530E+00
 0.8967729883705E-01 -0.6476960932747E+00
 0.9759997981818E-01 -0.6221852133612E+00
 0.1137112601451E+00 -0.5895228440273E+00
 0.1393071243602E+00 -0.5507384921724E+00
 0.1753111280327E+00 -0.5077476742145E+00
 0.7225135946366E+00 -0.3482259885946E+00
 0.7319184286757E+00 -0.3400638798089E+00
 0.7377940781249E+00 -0.3314835862588E+00
 0.7404814569558E+00 -0.3231308287738E+00
 0.7404903499653E+00 -0.3155680192543E+00
 0.7384221865743E+00 -0.3092581836551E+00
 0.7349163322319E+00 -0.3045484729637E+00
 0.7306085677869E+00 -0.3016622741593E+00
 0.7260930984960E+00 -0.3007000533244E+00
 0.3018156381164E-03  0.3683969243298E-03
 0.8068044222465E-03  0.6953996637313E-03
 0.1490375842923E-02  0.9507075739713E-03
 0.2354335710650E-02  0.1144567537713E-02
 0.3386754457947E-02  0.1272025890341E-02
 0.4577755092606E-02  0.1328170281805E-02
 0.5917329161703E-02  0.1306299064753E-02
 0.7395666419958E-02  0.1197726786116E-02
 0.9003034181467E-02  0.9904409000009E-03
 0.1072876077113E-01  0.6674093635963E-03
 0.1255455132974E-01  0.2241144545259E-03
 0.1444618867617E-01 -0.3167104577680E-03
 0.1635833119113E-01 -0.9512490109649E-03
 0.1823990964002E-01 -0.1689979121991E-02
 0.2003075990283E-01 -0.2545974437515E-02
 0.2165758630561E-01 -0.3534258445665E-02
 0.2303729632893E-01 -0.4684834734598E-02
 0.2404655488699E-01 -0.6043541065029E-02
 0.2452191517788E-01 -0.7714566941653E-02
 0.2364151961982E-01 -0.9708266410655E-02
 0.2771592173313E-03  0.2573649079571E-03
 0.7878893333880E-03  0.4954699386297E-03
 0.1485568526010E-02  0.6801065197804E-03
 0.2364269059470E-02  0.8057603952023E-03
 0.3414137511596E-02  0.8696567644032E-03
 0.4624677983042E-02  0.8661090284485E-03
 0.5985942083472E-02  0.7885661105492E-03
 0.7488095313413E-02  0.6286993755612E-03
 0.9121302115862E-02  0.3758034974635E-03
 0.1087380348362E-01  0.1719718141616E-04
 0.1272534937279E-01 -0.4450173377630E-03
 0.1464020979434E-01 -0.9845858956342E-03
 0.1657125408160E-01 -0.1594331864732E-02
 0.1846452269696E-01 -0.2279917431852E-02
 0.2025624195459E-01 -0.3047608485106E-02
 0.2186979265336E-01 -0.3903494525691E-02
 0.2321191307753E-01 -0.4859172690103E-02
 0.2415531339610E-01 -0.5929942665969E-02
 0.2444055086591E-01 -0.7094729663089E-02
 0.2334091337265E-01 -0.8390256221990E-02
 0.2654776545956E-03  0.1646873512634E-03
 0.7772649725809E-03  0.3157107869751E-03
 0.1486551297438E-02  0.4269465291946E-03
 0.2379344430847E-02  0.4858100051395E-03
 0.3445478886604E-02  0.4873678409245E-03
 0.4674407372152E-02  0.4261070796997E-03
 0.6055987435456E-02  0.2956432240419E-03
 0.7580246976103E-02  0.8849848187011E-04
 0.9236780474183E-02 -0.2039691952943E-03
 0.1101222246334E-01 -0.5902020799617E-03
 0.1288430612216E-01 -0.1063719239842E-02
 0.1481617947790E-01 -0.1596786868824E-02
 0.1675945858319E-01 -0.2179350887011E-02
 0.1865775562077E-01 -0.2812746632267E-02
 0.2044444060972E-01 -0.3498013694804E-02
 0.2203881732163E-01 -0.4233502284180E-02
 0.2334204040529E-01 -0.5019111385742E-02
 0.2421115536373E-01 -0.5843173089896E-02
 0.2437289014436E-01 -0.6678738951579E-02
 0.2338323825742E-01 -0.7637397674801E-02
 0.2620912880914E-03  0.8255462634595E-04
 0.7745993399846E-03  0.1520228931321E-03
 0.1493166800779E-02  0.1902019281627E-03
 0.2398900391550E-02  0.1831863978799E-03
 0.3480139321586E-02  0.1239861403709E-03
 0.4726103902855E-02  0.6996722522142E-05
 0.6126397477519E-02 -0.1736679291373E-03
 0.7670682198330E-02 -0.4243218383952E-03
 0.9347658961031E-02 -0.7513004486133E-03
 0.1114222898314E-01 -0.1159404917947E-02
 0.1303033029873E-01 -0.1639262460630E-02
 0.1497426351760E-01 -0.2162786002153E-02
 0.1692474106626E-01 -0.2717821391452E-02
 0.1882361673079E-01 -0.3302363782608E-02
 0.2060198816977E-01 -0.3913659013647E-02
 0.2217649398607E-01 -0.4545490730010E-02
 0.2344441215473E-01 -0.5190783692153E-02
 0.2425956105913E-01 -0.5834246550095E-02
 0.2439828113750E-01 -0.6479944001033E-02
 0.2365029816102E-01 -0.7257616065165E-02
 0.2641882253807E-03  0.7457091531334E-05
 0.7785796484603E-03  0.8605531690499E-06
 0.1504988159628E-02 -0.3189728154752E-04
 0.2422358674095E-02 -0.1035035271797E-03
 0.3517453778956E-02 -0.2218346924631E-03
 0.4778984462345E-02 -0.3925554377161E-03
 0.6196192886285E-02 -0.6208630606024E-03
 0.7758190419767E-02 -0.9117097684855E-03
 0.9452616752413E-02 -0.1269197098706E-02
 0.1126273029606E-01 -0.1695157389072E-02
 0.1316298866320E-01 -0.2178373809822E-02
 0.1511510868756E-01 -0.2691140860266E-02
 0.1706925991038E-01 -0.3220030860352E-02
 0.1896620550579E-01 -0.3760797018029E-02
 0.2073575913682E-01 -0.4308630658033E-02
 0.2229355004944E-01 -0.4855599490598E-02
 0.2353713794835E-01 -0.5394233513776E-02
 0.2433321761100E-01 -0.5919410684957E-02
 0.2452535614569E-01 -0.6461012098317E-02
 0.2405270082730E-01 -0.7133860235221E-02
 0.2699973352322E-03 -0.6250281397304E-04
 0.7878122086833E-03 -0.1403623537272E-03
 0.1521336576983E-02 -0.2412511506666E-03
 0.2449143873858E-02 -0.3757267631241E-03
 0.3556788985106E-02 -0.5515143485383E-03
 0.4832330931904E-02 -0.7740446583510E-03
 0.6264528331813E-02 -0.1047686695709E-02
 0.7841820692235E-02 -0.1375964018511E-02
 0.9550753818117E-02 -0.1760957034846E-02
 0.1137314753519E-01 -0.2202157076524E-02
 0.1328232882927E-01 -0.2687280289239E-02
 0.1523972239666E-01 -0.3189540528776E-02
 0.1719534913332E-01 -0.3695009113575E-02
 0.1908961030427E-01 -0.4198325379768E-02
 0.2085218907389E-01 -0.4694258225721E-02
 0.2239972675586E-01 -0.5175831257901E-02
 0.2363513321540E-01 -0.5640108079511E-02
 0.2444722371444E-01 -0.6095016120216E-02
 0.2474006791195E-01 -0.6583329622837E-02
 0.2453618369851E-01 -0.7194360060284E-02
 0.2783463328014E-03 -0.1284862489373E-03
 0.8010703199052E-03 -0.2735302531640E-03
 0.1541437094888E-02 -0.4396170687181E-03
 0.2478666852499E-02 -0.6349910705199E-03
 0.3597559564671E-02 -0.8665337413610E-03
 0.4885511623261E-02 -0.1139088094019E-02
 0.6330712657064E-02 -0.1456069733440E-02
 0.7920875433232E-02 -0.1819594790616E-02
 0.9641518141709E-02 -0.2229986454732E-02
 0.1147328664055E-01 -0.2684943275072E-02
 0.1338874253201E-01 -0.3171710528783E-02
 0.1534933955305E-01 -0.3664835377010E-02
 0.1730538686679E-01 -0.4150581079249E-02
 0.1919768757317E-01 -0.4623500727494E-02
 0.2095700516319E-01 -0.5079340353860E-02
 0.2250311415736E-01 -0.5514121306341E-02
 0.2374813288617E-01 -0.5931545161204E-02
 0.2460528377141E-01 -0.6350252444038E-02
 0.2502449995248E-01 -0.6816116764723E-02
 0.2506884915494E-01 -0.7392957780935E-02
 0.2884267544330E-03 -0.1912726139143E-03
 0.8173407931557E-03 -0.4000585422257E-03
 0.1564527230732E-02 -0.6285470374794E-03
 0.2510349101889E-02 -0.8827850743091E-03
 0.3639237886345E-02 -0.1168413814410E-02
 0.4937995840684E-02 -0.1489386878670E-02
 0.6394214375553E-02 -0.1848062175780E-02
 0.7994887569512E-02 -0.2245215398799E-02
 0.9724640035388E-02 -0.2679680823244E-02
 0.1156324003324E-01 -0.3147827345431E-02
 0.1348285421116E-01 -0.3636891666265E-02
 0.1544530930262E-01 -0.4123078078207E-02
 0.1740166918120E-01 -0.4593432009273E-02
 0.1929389915666E-01 -0.5043276942295E-02
 0.2105500748490E-01 -0.5470399182913E-02
 0.2260968030665E-01 -0.5874949151606E-02
 0.2388119564006E-01 -0.6267281557369E-02
 0.2480519756410E-01 -0.6673050663435E-02
 0.2536280974815E-01 -0.7136039133086E-02
 0.2563181738162E-01 -0.7698585789310E-02
 0.2996640887207E-03 -0.2514249157343E-03
 0.8358110378524E-03 -0.5210501701429E-03
 0.1589915947238E-02 -0.8093985033651E-03
 0.2543653727723E-02 -0.1120540640147E-02
 0.3681365356599E-02 -0.1458687203829E-02
 0.4989361008646E-02 -0.1826688700733E-02
 0.6454657240308E-02 -0.2225772313609E-02
 0.8063591834071E-02 -0.2655459907468E-02
 0.9800074818717E-02 -0.3113345185224E-02
 0.1164330785575E-01 -0.3594848765723E-02
 0.1356543090665E-01 -0.4087554289503E-02
 0.1552899963483E-01 -0.4569571240774E-02
 0.1748630700413E-01 -0.5029200118440E-02
 0.1938119772569E-01 -0.5463185415869E-02
 0.2114992803606E-01 -0.5872020511312E-02
 0.2272327077990E-01 -0.6260299619097E-02
 0.2403597308167E-01 -0.6643961242343E-02
 0.2504213337204E-01 -0.7052433495062E-02
 0.2574243103410E-01 -0.7524988151918E-02
 0.2621401307416E-01 -0.8089337688892E-02
 0.3116427855124E-03 -0.3093742891577E-03
 0.8558422741286E-03 -0.6373963372765E-03
 0.1617010968249E-02 -0.9833637926577E-03
 0.2578110235214E-02 -0.1349615141320E-02
 0.3723563078804E-02 -0.1738871328479E-02
 0.5039294664893E-02 -0.2152752103095E-02
 0.6511809902098E-02 -0.2591315382405E-02
 0.8126895235489E-02 -0.3052921447967E-02
 0.9867953492250E-02 -0.3534140353951E-02
 0.1171393409552E-01 -0.4029749931965E-02
 0.1363730987390E-01 -0.4527946588195E-02
 0.1560172127976E-01 -0.5008924072849E-02
 0.1756115042917E-01 -0.5462588206462E-02
 0.1946195783773E-01 -0.5887538220876E-02
 0.2124440804007E-01 -0.6287267581352E-02
 0.2284591144196E-01 -0.6670567624250E-02
 0.2421186370385E-01 -0.7057560739227E-02
 0.2531049783747E-01 -0.7479076728141E-02
 0.2615312935083E-01 -0.7969198172956E-02
 0.2681052981303E-01 -0.8546263578478E-02
 0.3240335728258E-03 -0.3654089749601E-03
 0.8768447919874E-03 -0.7496038268227E-03
 0.1645139693166E-02 -0.1150987716006E-02
 0.2613031808478E-02 -0.1570401993471E-02
 0.3765117998335E-02 -0.2009110625452E-02
 0.5087041536657E-02 -0.2467462447847E-02
 0.6564892598197E-02 -0.2944360781008E-02
 0.8184050045270E-02 -0.3437120018752E-02
 0.9927641304364E-02 -0.3941494647624E-02
 0.1177467870182E-01 -0.4451880857184E-02
 0.1369831065367E-01 -0.4957289985924E-02
 0.1566359212927E-01 -0.5440113213341E-02
 0.1762658981314E-01 -0.5892086944390E-02
 0.1953665440102E-01 -0.6313879911495E-02
 0.2133847045520E-01 -0.6711947868173E-02
 0.2297598842994E-01 -0.7098684169845E-02
 0.2440368442938E-01 -0.7497025167653E-02
 0.2559966083176E-01 -0.7937650295190E-02
 0.2657992437051E-01 -0.8449861690839E-02
 0.2740491960683E-01 -0.9044513041464E-02
 0.3366529953673E-03 -0.4198829099622E-03
 0.8985578876012E-03 -0.8585543003719E-03
 0.1674135298815E-02 -0.1313751905618E-02
 0.2648453422650E-02 -0.1785020649514E-02
 0.3806305999187E-02 -0.2272228750535E-02
 0.5133135834144E-02 -0.2774444929376E-02
 0.6614721731149E-02 -0.3289432939264E-02
 0.8236187003882E-02 -0.3813542449790E-02
 0.9980609028877E-02 -0.4341853225683E-02
 0.1182735458918E-01 -0.4868547205456E-02
 0.1375056291413E-01 -0.5383565062328E-02
 0.1571701551396E-01 -0.5871546988689E-02
 0.1768522804918E-01 -0.6326173275269E-02
 0.1960793358554E-01 -0.6750236589415E-02
 0.2143447766347E-01 -0.7152954772340E-02
 0.2311502753829E-01 -0.7549691795557E-02
 0.2461154772009E-01 -0.7965131497718E-02
 0.2590873486534E-01 -0.8428958739111E-02
 0.2702317997315E-01 -0.8966065216414E-02
 0.2800425777543E-01 -0.9582448439007E-02
 0.3493527627084E-03 -0.4730491783056E-03
 0.9207209869452E-03 -0.9648052343094E-03
 0.1703730221438E-02 -0.1472509258381E-02
 0.2684175464943E-02 -0.1994580862044E-02
 0.3847023114297E-02 -0.2529574705001E-02
 0.5177578756624E-02 -0.3075303701655E-02
 0.6661417993225E-02 -0.3628424082589E-02
 0.8283569033751E-02 -0.4184394029522E-02
 0.1002728262997E-01 -0.4737727001250E-02
 0.1187255573530E-01 -0.5282504753860E-02
 0.1379480995730E-01 -0.5809655978521E-02
 0.1576283863868E-01 -0.6306073293174E-02
 0.1773791773912E-01 -0.6767403531821E-02
 0.1967644389074E-01 -0.7198491528209E-02