<VTKFile type="UnstructuredGrid" version="1,0" byte_order="LittleEndian">
<UnstructuredGrid>
<Piece NumberOfPoints="5802" NumberOfCells="5680">
<Points>
<DataArray type="Float64" NumberOfComponents="3" format="ascii">
-0.1100000000000E+01 -0.4731587125634E+01  0.0000000000000E+00
 0.0000000000000E+00 -0.4731587125634E+01  0.0000000000000E+00
 0.1100000000000E+01 -0.4731587125634E+01  0.0000000000000E+00
-0.1191315091097E+01 -0.1825930012610E+01  0.0000000000000E+00
-0.5956575398395E+00 -0.1755172846926E+01  0.0000000000000E+00
 0.5956575512579E+00 -0.1755172847830E+01  0.0000000000000E+00
 0.1191315091097E+01 -0.1825930012610E+01  0.0000000000000E+00
-0.1487255332335E+01  0.3711246317436E+00  0.0000000000000E+00
 0.1487255329206E+01  0.3711246337271E+00  0.0000000000000E+00
-0.6187500000000E+00 -0.4973806884503E+00  0.0000000000000E+00
 0.6187500000000E+00 -0.4973806884503E+00  0.0000000000000E+00
-0.1072500000000E+01 -0.4731587125634E+01  0.0000000000000E+00
-0.1045000000000E+01 -0.4731587125634E+01  0.0000000000000E+00
-0.1017500000000E+01 -0.4731587125634E+01  0.0000000000000E+00
-0.9900000000000E+00 -0.4731587125634E+01  0.0000000000000E+00
-0.9625000000000E+00 -0.4731587125634E+01  0.0000000000000E+00
-0.9350000000000E+00 -0.4731587125634E+01  0.0000000000000E+00
-0.9075000000000E+00 -0.4731587125634E+01  0.0000000000000E+00
-0.8800000000000E+00 -0.4731587125634E+01  0.0000000000000E+00
-0.8525000000000E+00 -0.4731587125634E+01  0.0000000000000E+00
-0.8250000000000E+00 -0.4731587125634E+01  0.0000000000000E+00
-0.7975000000000E+00 -0.4731587125634E+01  0.0000000000000E+00
-0.7700000000000E+00 -0.4731587125634E+01  0.0000000000000E+00
-0.7425000000000E+00 -0.4731587125634E+01  0.0000000000000E+00
-0.7150000000000E+00 -0.4731587125634E+01  0.0000000000000E+00
-0.6875000000000E+00 -0.4731587125634E+01  0.0000000000000E+00
-0.6600000000000E+00 -0.4731587125634E+01  0.0000000000000E+00
-0.6325000000000E+00 -0.4731587125634E+01  0.0000000000000E+00
-0.6050000000000E+00 -0.4731587125634E+01  0.0000000000000E+00
-0.5775000000000E+00 -0.4731587125634E+01  0.0000000000000E+00
-0.5500000000000E+00 -0.4731587125634E+01  0.0000000000000E+00
-0.5225000000000E+00 -0.4731587125634E+01  0.0000000000000E+00
-0.4950000000000E+00 -0.4731587125634E+01  0.0000000000000E+00
-0.4675000000000E+00 -0.4731587125634E+01  0.0000000000000E+00
-0.4400000000000E+00 -0.4731587125634E+01  0.0000000000000E+00
-0.4125000000000E+00 -0.4731587125634E+01  0.0000000000000E+00
-0.3850000000000E+00 -0.4731587125634E+01  0.0000000000000E+00
-0.3575000000000E+00 -0.4731587125634E+01  0.0000000000000E+00
-0.3300000000000E+00 -0.4731587125634E+01  0.0000000000000E+00
-0.3025000000000E+00 -0.4731587125634E+01  0.0000000000000E+00
-0.2750000000000E+00 -0.4731587125634E+01  0.0000000000000E+00
-0.2475000000000E+00 -0.4731587125634E+01  0.0000000000000E+00
-0.2200000000000E+00 -0.4731587125634E+01  0.0000000000000E+00
-0.1925000000000E+00 -0.4731587125634E+01  0.0000000000000E+00
-0.1650000000000E+00 -0.4731587125634E+01  0.0000000000000E+00
-0.1375000000000E+00 -0.4731587125634E+01  0.0000000000000E+00
-0.1100000000000E+00 -0.4731587125634E+01  0.0000000000000E+00
-0.8250000000000E-01 -0.4731587125634E+01  0.0000000000000E+00
-0.5500000000000E-01 -0.4731587125634E+01  0.0000000000000E+00
-0.2750000000000E-01 -0.4731587125634E+01  0.0000000000000E+00
 0.2750000000000E-01 -0.4731587125634E+01  0.0000000000000E+00
 0.5500000000000E-01 -0.4731587125634E+01  0.0000000000000E+00
 0.8250000000000E-01 -0.4731587125634E+01  0.0000000000000E+00
 0.1100000000000E+00 -0.4731587125634E+01  0.0000000000000E+00
 0.1375000000000E+00 -0.4731587125634E+01  0.0000000000000E+00
 0.1650000000000E+00 -0.4731587125634E+01  0.0000000000000E+00
 0.1925000000000E+00 -0.4731587125634E+01  0.0000000000000E+00
 0.2200000000000E+00 -0.4731587125634E+01  0.0000000000000E+00
 0.2475000000000E+00 -0.4731587125634E+01  0.0000000000000E+00
 0.2750000000000E+00 -0.4731587125634E+01  0.0000000000000E+00
 0.3025000000000E+00 -0.4731587125634E+01  0.0000000000000E+00
 0.3300000000000E+00 -0.4731587125634E+01  0.0000000000000E+00
 0.3575000000000E+00 -0.4731587125634E+01  0.0000000000000E+00
 0.3850000000000E+00 -0.4731587125634E+01  0.0000000000000E+00
 0.4125000000000E+00 -0.4731587125634E+01  0.0000000000000E+00
 0.4400000000000E+00 -0.4731587125634E+01  0.0000000000000E+00
 0.4675000000000E+00 -0.4731587125634E+01  0.0000000000000E+00
 0.4950000000000E+00 -0.4731587125634E+01  0.0000000000000E+00
 0.5225000000000E+00 -0.4731587125634E+01  0.0000000000000E+00
 0.5500000000000E+00 -0.4731587125634E+01  0.0000000000000E+00
 0.5775000000000E+00 -0.4731587125634E+01  0.0000000000000E+00
 0.6050000000000E+00 -0.4731587125634E+01  0.0000000000000E+00
 0.6325000000000E+00 -0.4731587125634E+01  0.0000000000000E+00
 0.6600000000000E+00 -0.4731587125634E+01  0.0000000000000E+00
 0.6875000000000E+00 -0.4731587125634E+01  0.0000000000000E+00
 0.7150000000000E+00 -0.4731587125634E+01  0.0000000000000E+00
 0.7425000000000E+00 -0.4731587125634E+01  0.0000000000000E+00
 0.7700000000000E+00 -0.4731587125634E+01  0.0000000000000E+00
 0.7975000000000E+00 -0.4731587125634E+01  0.0000000000000E+00
 0.8250000000000E+00 -0.4731587125634E+01  0.0000000000000E+00
 0.8525000000000E+00 -0.4731587125634E+01  0.0000000000000E+00
 0.8800000000000E+00 -0.4731587125634E+01  0.0000000000000E+00
 0.9075000000000E+00 -0.4731587125634E+01  0.0000000000000E+00
 0.9350000000000E+00 -0.4731587125634E+01  0.0000000000000E+00
 0.9625000000000E+00 -0.4731587125634E+01  0.0000000000000E+00
 0.9900000000000E+00 -0.4731587125634E+01  0.0000000000000E+00
 0.1017500000000E+01 -0.4731587125634E+01  0.0000000000000E+00
 0.1045000000000E+01 -0.4731587125634E+01  0.0000000000000E+00
 0.1072500000000E+01 -0.4731587125634E+01  0.0000000000000E+00
-0.1161675590434E+01 -0.1821293974842E+01  0.0000000000000E+00
-0.1132018469080E+01 -0.1816772081031E+01  0.0000000000000E+00
-0.1102344135527E+01 -0.1812364599475E+01  0.0000000000000E+00
-0.1072653001422E+01 -0.1808071792594E+01  0.0000000000000E+00
-0.1042945459471E+01 -0.1803893913795E+01  0.0000000000000E+00
-0.1013221952450E+01 -0.1799831217138E+01  0.0000000000000E+00
-0.9834829017084E+00 -0.1795883946982E+01  0.0000000000000E+00
-0.9537287316532E+00 -0.1792052341512E+01  0.0000000000000E+00
-0.9239598612408E+00 -0.1788336631619E+01  0.0000000000000E+00
-0.8941767210493E+00 -0.1784737043031E+01  0.0000000000000E+00
-0.8643797539566E+00 -0.1781253796152E+01  0.0000000000000E+00
-0.8345693957871E+00 -0.1777887103664E+01  0.0000000000000E+00
-0.8047460850418E+00 -0.1774637171701E+01  0.0000000000000E+00
-0.7749102599775E+00 -0.1771504199483E+01  0.0000000000000E+00
-0.7450623578572E+00 -0.1768488379244E+01  0.0000000000000E+00
-0.7152028352234E+00 -0.1765589898169E+01  0.0000000000000E+00
-0.6853321404180E+00 -0.1762808935500E+01  0.0000000000000E+00
-0.6554507240472E+00 -0.1760145663610E+01  0.0000000000000E+00
-0.6255590388957E+00 -0.1757600247935E+01  0.0000000000000E+00
-0.5659320403842E+00 -0.1752877555980E+01  0.0000000000000E+00
-0.5361977827764E+00 -0.1750699115345E+01  0.0000000000000E+00
-0.5064551822954E+00 -0.1748637656849E+01  0.0000000000000E+00
-0.4767046834532E+00 -0.1746693307634E+01  0.0000000000000E+00
-0.4469467825907E+00 -0.1744866190914E+01  0.0000000000000E+00
-0.4171818756954E+00 -0.1743156416506E+01  0.0000000000000E+00
-0.3874104734057E+00 -0.1741564093885E+01  0.0000000000000E+00
-0.3576330176963E+00 -0.1740089321191E+01  0.0000000000000E+00
-0.3278499563594E+00 -0.1738732189839E+01  0.0000000000000E+00
-0.2980617833702E+00 -0.1737492785992E+01  0.0000000000000E+00
-0.2682689204519E+00 -0.1736371185422E+01  0.0000000000000E+00
-0.2384718656336E+00 -0.1735367459648E+01  0.0000000000000E+00
-0.2086710716336E+00 -0.1734481671049E+01  0.0000000000000E+00
-0.1788669979735E+00 -0.1733713874997E+01  0.0000000000000E+00
-0.1490601279746E+00 -0.1733064120054E+01  0.0000000000000E+00
-0.1192509059245E+00 -0.1732532446511E+01  0.0000000000000E+00
-0.8943981808141E-01 -0.1732118888112E+01  0.0000000000000E+00
-0.5962732433722E-01 -0.1731823470688E+01  0.0000000000000E+00
-0.2981389296327E-01 -0.1731646212812E+01  0.0000000000000E+00
 0.5727055524263E-08 -0.1731587125634E+01  0.0000000000000E+00
 0.2981390441730E-01 -0.1731646212857E+01  0.0000000000000E+00
 0.5962733579097E-01 -0.1731823470779E+01  0.0000000000000E+00
 0.8943982953471E-01 -0.1732118888248E+01  0.0000000000000E+00
 0.1192509173772E+00 -0.1732532446692E+01  0.0000000000000E+00
 0.1490601394265E+00 -0.1733064120281E+01  0.0000000000000E+00
 0.1788670094244E+00 -0.1733713875269E+01  0.0000000000000E+00
 0.2086710830833E+00 -0.1734481671367E+01  0.0000000000000E+00
 0.2384718770819E+00 -0.1735367460011E+01  0.0000000000000E+00
 0.2682689318987E+00 -0.1736371185830E+01  0.0000000000000E+00
 0.2980617948153E+00 -0.1737492786445E+01  0.0000000000000E+00
 0.3278499678026E+00 -0.1738732190338E+01  0.0000000000000E+00
 0.3576330291375E+00 -0.1740089321735E+01  0.0000000000000E+00
 0.3874104848446E+00 -0.1741564094474E+01  0.0000000000000E+00
 0.4171818871319E+00 -0.1743156417141E+01  0.0000000000000E+00
 0.4469467940246E+00 -0.1744866191594E+01  0.0000000000000E+00
 0.4767046948843E+00 -0.1746693308359E+01  0.0000000000000E+00
 0.5064551937236E+00 -0.1748637657619E+01  0.0000000000000E+00
 0.5361977942015E+00 -0.1750699116160E+01  0.0000000000000E+00
 0.5659320518060E+00 -0.1752877556840E+01  0.0000000000000E+00
 0.6255590497397E+00 -0.1757600248837E+01  0.0000000000000E+00
 0.6554507343169E+00 -0.1760145664505E+01  0.0000000000000E+00
 0.6853321501138E+00 -0.1762808936384E+01  0.0000000000000E+00
 0.7152028443456E+00 -0.1765589899036E+01  0.0000000000000E+00
 0.7450623664059E+00 -0.1768488380091E+01  0.0000000000000E+00
 0.7749102679531E+00 -0.1771504200305E+01  0.0000000000000E+00
 0.8047460924447E+00 -0.1774637172493E+01  0.0000000000000E+00
 0.8345694026177E+00 -0.1777887104422E+01  0.0000000000000E+00
[...]
<PointData Vectors="'U'">
<DataArray type="Float64" Name="U" NumberOfComponents="2" ComponentName0="U1" ComponentName1="U2" format="ascii">
-0.4038165148996E-38 -0.1010128289301E-37
-0.1432628855162E-37 -0.4334507807767E-37
 0.1535472353003E-37 -0.3857486380380E-37
-0.4254924610066E-01 -0.4752778868842E-01
-0.3449536669986E-01 -0.2292077776237E-01
-0.2645603159423E-01 -0.4526882955048E-02
-0.2337329881565E-01  0.4801533574592E-03
-0.8385728198810E+00 -0.6146795253757E+00
-0.3766961512504E+00  0.7499080840129E-01
-0.5510768515870E+00 -0.4832624597082E+00
-0.9652801166581E-01 -0.1996490369895E+00
-0.6452706936159E-37 -0.1546934209670E-36
-0.6343305835882E-37 -0.1411090474150E-36
-0.6177505602268E-37 -0.1313699342882E-36
-0.5998076231958E-37 -0.1238259505816E-36
-0.5818554733485E-37 -0.1176803267894E-36
-0.5643604530952E-37 -0.1124886847784E-36
-0.5474619902747E-37 -0.1079813467041E-36
-0.5311713689043E-37 -0.1039846171172E-36
-0.5154510126632E-37 -0.1003813127212E-36
-0.5002476477422E-37 -0.9708932462920E-37
-0.4855061940311E-37 -0.9404926620142E-37
-0.4711752810827E-37 -0.9121701143554E-37
-0.4572090804401E-37 -0.8855900761735E-37
-0.4435675427217E-37 -0.8604922722258E-37
-0.4302159869358E-37 -0.8366712618946E-37
-0.4171244703148E-37 -0.8139624068811E-37
-0.4042671275401E-37 -0.7922319708342E-37
-0.3916215599542E-37 -0.7713700190676E-37
-0.3791683060098E-37 -0.7512852230638E-37
-0.3668918932718E-37 -0.7319018347334E-37
-0.3547780329935E-37 -0.7132318073848E-37
-0.3428109522322E-37 -0.6951371914268E-37
-0.3309787959835E-37 -0.6775705140159E-37
-0.3192711805243E-37 -0.6604906014735E-37
-0.3076787884563E-37 -0.6438616004987E-37
-0.2961932130749E-37 -0.6276520493820E-37
-0.2848068287535E-37 -0.6118342530684E-37
-0.2735126819490E-37 -0.5963836427036E-37
-0.2623044009898E-37 -0.5812783353797E-37
-0.2511761192683E-37 -0.5664987602378E-37
-0.2401224121339E-37 -0.5520273028635E-37
-0.2291382429673E-37 -0.5378480872914E-37
-0.2182189188450E-37 -0.5239467193089E-37
-0.2073600536135E-37 -0.5103101204838E-37
-0.1965575369237E-37 -0.4969263802390E-37
-0.1858075097859E-37 -0.4837846146391E-37
-0.1751063438361E-37 -0.4708748832732E-37
-0.1644506257997E-37 -0.4581880883878E-37
-0.1538371451842E-37 -0.4457159158761E-37
-0.1327250186562E-37 -0.4213857866840E-37
-0.1222209019155E-37 -0.4095146988217E-37
-0.1117480777718E-37 -0.3978319280346E-37
-0.1013042761423E-37 -0.3863325240793E-37
-0.9088741937849E-38 -0.3750121795687E-37
-0.8049562890806E-38 -0.3638672489215E-37
-0.7012723588285E-38 -0.3528947654890E-37
-0.5978079273249E-38 -0.3420924873191E-37
-0.4945508903285E-38 -0.3314589382098E-37
-0.3914917014207E-38 -0.3209934715613E-37
-0.2886235828742E-38 -0.3106963487626E-37
-0.1859428049174E-38 -0.3005688245899E-37
-0.8344897888925E-39 -0.2906132672256E-37
 0.1885456181292E-39 -0.2808332868757E-37
 0.1209603226409E-38 -0.2712339009067E-37
 0.2228561376868E-38 -0.2618217277222E-37
 0.3245245149973E-38 -0.2526052223849E-37
 0.4259419111242E-38 -0.2435949585674E-37
 0.5270778786959E-38 -0.2348039638583E-37
 0.6279038452473E-38 -0.2262476950331E-37
 0.7283513337453E-38 -0.2179598447246E-37
 0.8283749508248E-38 -0.2099550749331E-37
 0.9278979910363E-38 -0.2022616742800E-37
 0.1026830226271E-37 -0.1949141365207E-37
 0.1125060497138E-37 -0.1879543491868E-37
 0.1222451216912E-37 -0.1814333989905E-37
 0.1318830820122E-37 -0.1754139636041E-37
 0.1413983141566E-37 -0.1699735370246E-37
 0.1507632130015E-37 -0.1652088350715E-37
 0.1599419278963E-37 -0.1612419325814E-37
 0.1688869432989E-37 -0.1582289623803E-37
 0.1775337667400E-37 -0.1563726514354E-37
 0.1857925044737E-37 -0.1559406300364E-37
 0.1935343996772E-37 -0.1572921725185E-37
 0.2005709590497E-37 -0.1609158769837E-37
 0.2066266767195E-37 -0.1674742306509E-37
 0.2113361594665E-37 -0.1778078558182E-37
 0.2145064036438E-37 -0.1925866613441E-37
 0.2185258014991E-37 -0.2094017627451E-37
-0.4144626152367E-01 -0.4337911772813E-01
-0.4067789040146E-01 -0.4071684929466E-01
-0.4004942257326E-01 -0.3871238128381E-01
-0.3951976847888E-01 -0.3706388511812E-01
-0.3905856017402E-01 -0.3563942981218E-01
-0.3864531976264E-01 -0.3436998918590E-01
-0.3826632204728E-01 -0.3321546104609E-01
-0.3791244144921E-01 -0.3215054891751E-01
-0.3757755708005E-01 -0.3115820100381E-01
-0.3725749075960E-01 -0.3022627976061E-01
-0.3694932498180E-01 -0.2934575348746E-01
-0.3665097217769E-01 -0.2850965500870E-01
-0.3636090350795E-01 -0.2771245124802E-01
-0.3607797696594E-01 -0.2694964276922E-01
-0.3580132804682E-01 -0.2621749894336E-01
-0.3553030142208E-01 -0.2551287657237E-01
-0.3526441104209E-01 -0.2483308869677E-01
-0.3500332906779E-01 -0.2417580640343E-01
-0.3474689639582E-01 -0.2353895597717E-01
-0.3424833162311E-01 -0.2232386952683E-01
-0.3400348185000E-01 -0.2174153800443E-01
-0.3376101273937E-01 -0.2117297162195E-01
-0.3352098149009E-01 -0.2061718370129E-01
-0.3328339840510E-01 -0.2007320037942E-01
-0.3304824781977E-01 -0.1954010540671E-01
-0.3281550474870E-01 -0.1901705249915E-01
-0.3258514158181E-01 -0.1850326099015E-01
-0.3235713308922E-01 -0.1799801308050E-01
-0.3213145887898E-01 -0.1750064970094E-01
-0.3190810335033E-01 -0.1701056385305E-01
-0.3168705694069E-01 -0.1652719883047E-01
-0.3146831491595E-01 -0.1605004241140E-01
-0.3125187725006E-01 -0.1557862438758E-01
-0.3103774811318E-01 -0.1511251389143E-01
-0.3082593473440E-01 -0.1465131583521E-01
-0.3061644728327E-01 -0.1419466991705E-01
-0.3040929768426E-01 -0.1374224756848E-01
-0.3020449918572E-01 -0.1329375074292E-01
-0.3000206565807E-01 -0.1284891027770E-01
-0.2980201093170E-01 -0.1240748447007E-01
-0.2960434822045E-01 -0.1196925794836E-01
-0.2940908957489E-01 -0.1153404070361E-01
-0.2921624531447E-01 -0.1110166715864E-01
-0.2902582348649E-01 -0.1067199537304E-01
-0.2883782961968E-01 -0.1024490699296E-01
-0.2865226585699E-01 -0.9820305877487E-02
-0.2846913107322E-01 -0.9398119039030E-02
-0.2828842012891E-01 -0.8978295713021E-02
-0.2811012368496E-01 -0.8560807785148E-02
-0.2793422828979E-01 -0.8145650950179E-02
-0.2776071555031E-01 -0.7732843744659E-02
-0.2758956310311E-01 -0.7322430724494E-02
-0.2742074436859E-01 -0.6914482400639E-02
-0.2725422994680E-01 -0.6509097983526E-02
-0.2708999072744E-01 -0.6106409402156E-02
-0.2692800239161E-01 -0.5706582313640E-02
-0.2676826297934E-01 -0.5309826064752E-02
-0.2661081268239E-01 -0.4916383442333E-02
-0.2630149340851E-01 -0.4139054671015E-02
-0.2614859689423E-01 -0.3754921083541E-02
-0.2599720279659E-01 -0.3375288643612E-02
-0.2584725926059E-01 -0.3000725790530E-02
-0.2569869189632E-01 -0.2631851166260E-02
-0.2555140783715E-01 -0.2269372308584E-02
-0.2540529450579E-01 -0.1914120208270E-02
-0.2526021967441E-01 -0.1567084387761E-02
-0.2511602977385E-01 -0.1229457899693E-02
-0.2497254512134E-01 -0.9026980313767E-03
-0.2482955002894E-01 -0.5886130417506E-03
-0.2468677400172E-01 -0.2894921635363E-03
-0.2454385675331E-01 -0.8309981558870E-05
-0.2440028460050E-01  0.2509320580575E-03
-0.2425527622535E-01  0.4825952857117E-03
-0.2410757701006E-01  0.6782223626610E-03
-0.2395509463635E-01  0.8239921856613E-03
-0.2379401160092E-01  0.8944910444142E-03
-0.2361712517324E-01  0.8321140947285E-03
-0.2107377770862E+00 -0.1567944461473E+00
-0.3000669072468E+00 -0.2471228599586E+00
-0.3715981121668E+00 -0.3181852555002E+00
-0.4328401147103E+00 -0.3806963353808E+00
-0.4880118019472E+00 -0.4372117648674E+00
-0.5394313321382E+00 -0.4872978665574E+00
-0.5879674878598E+00 -0.5276070897108E+00
-0.6331894573236E+00 -0.5585972934176E+00
-0.6747299473340E+00 -0.5823637711485E+00
-0.7124672938719E+00 -0.6003042316553E+00
-0.7462565329239E+00 -0.6132150664089E+00
-0.7758577101964E+00 -0.6216296711190E+00
-0.8009903645330E+00 -0.6261624621915E+00
-0.8213466153374E+00 -0.6273982675848E+00
-0.8366316782529E+00 -0.6259445057636E+00
-0.8467027647215E+00 -0.6226362085524E+00
-0.8515593393243E+00 -0.6187110746184E+00
-0.8511435717638E+00 -0.6149013419463E+00
-0.8462958923374E+00 -0.6128044158392E+00
-0.8334401746674E+00 -0.6187311658126E+00
-0.8280162365959E+00 -0.6258091133751E+00
-0.8227101834321E+00 -0.6370458174459E+00
-0.8178261945534E+00 -0.6542293619143E+00
-0.8130481202898E+00 -0.6780875785511E+00
-0.8081741144969E+00 -0.7059227379754E+00
-0.8030241058570E+00 -0.7340869511233E+00
-0.7965102816352E+00 -0.7606824644535E+00
-0.7874188646323E+00 -0.7847358801256E+00
-0.7748285400128E+00 -0.8057790404474E+00
-0.7584050941364E+00 -0.8235852283008E+00
-0.7385256789584E+00 -0.8376186944299E+00
-0.7158722960241E+00 -0.8471539567939E+00
-0.6911205647177E+00 -0.8515814287684E+00
-0.6648771768557E+00 -0.8504485148182E+00
-0.6376903278065E+00 -0.8434382069627E+00
-0.6100709164668E+00 -0.8303478842489E+00
-0.5825115493496E+00 -0.8110771151856E+00
-0.5555057813419E+00 -0.7856232979696E+00
-0.5295743726535E+00 -0.7540859378467E+00
-0.5052576423546E+00 -0.7166669521397E+00
-0.4829804368147E+00 -0.6736320422544E+00
-0.4630509092923E+00 -0.6253927525778E+00
-0.4456905601814E+00 -0.5725498957765E+00
-0.4310508559249E+00 -0.5159437590279E+00
-0.4192245351920E+00 -0.4567248301298E+00
-0.4102643339766E+00 -0.3964484883371E+00
-0.4042227587211E+00 -0.3372040642811E+00
-0.4012435006796E+00 -0.2818548037929E+00
-0.4015069867427E+00 -0.2338721597606E+00
-0.4038816884777E+00 -0.1932927432946E+00
-0.4066126518854E+00 -0.1573099862951E+00
-0.4090284429418E+00 -0.1242007274304E+00
-0.4106451199937E+00 -0.9293995908379E-01
-0.4110011911876E+00 -0.6287688918420E-01
-0.4095386804630E+00 -0.3362532295587E-01
-0.4054933571609E+00 -0.5043212013177E-02
-0.3987381818385E+00  0.2276666755698E-01
-0.3893429805139E+00  0.4961728103812E-01
-0.3462117147446E+00  0.1064704643637E+00
-0.3063012400344E+00  0.1258427093962E+00
-0.2619858981850E+00  0.1319014559152E+00
-0.2177178110292E+00  0.1295131770398E+00
-0.1751416561658E+00  0.1241953385805E+00
-0.1347609334760E+00  0.1157984531353E+00
-0.9710366438802E-01  0.1048821861575E+00
-0.6257207820370E-01  0.9210508121090E-01
-0.3148823054953E-01  0.7796526840480E-01
-0.4139766945000E-02  0.6288128557884E-01
 0.1923221700412E-01  0.4736765064938E-01
 0.3839332950045E-01  0.3187314930126E-01
 0.5304596804421E-01  0.1680655699426E-01
 0.6273823943137E-01  0.2636122172019E-02
 0.6693881887283E-01 -0.9773127920206E-02
 0.6515499179365E-01 -0.1935410341765E-01
 0.5658988045650E-01 -0.2533189440759E-01
 0.4024990370103E-01 -0.2629703398443E-01
 0.1585841524957E-01 -0.1839742128396E-01
-0.6778285573175E-03 -0.1246930902660E-02
-0.1117241651744E-02 -0.2176488113702E-02
-0.1500680585444E-02 -0.3061718322758E-02
-0.1858202631391E-02 -0.3920215956464E-02
-0.2209374329901E-02 -0.4764335106661E-02
-0.2563785579390E-02 -0.5599797973096E-02
-0.2928097325435E-02 -0.6429712034920E-02
-0.3306722628145E-02 -0.7255946554232E-02
-0.3702838635849E-02 -0.8079675513532E-02
-0.4118757674806E-02 -0.8901694214253E-02
-0.4556201587300E-02 -0.9722586171399E-02
-0.5016464728777E-02 -0.1054282652643E-01
-0.5500529969635E-02 -0.1136285148772E-01
-0.6009149751959E-02 -0.1218310508373E-01
-0.6542907416839E-02 -0.1300407541104E-01
-0.7102267084517E-02 -0.1382632766621E-01
-0.7687621027432E-02 -0.1465054290352E-01
-0.8299297972440E-02 -0.1547751175887E-01
-0.8937647627068E-02 -0.1630824232229E-01
-0.9603020904872E-02 -0.1714393891247E-01
-0.1029582815228E-01 -0.1798610989842E-01
-0.1101656401354E-01 -0.1883668306089E-01
-0.1176585465721E-01 -0.1969832329126E-01
-0.1254488447301E-01 -0.2057527977336E-01
-0.1335609726998E-01 -0.2147346666883E-01
-0.1420290448411E-01 -0.2239832869806E-01
-0.1508910644755E-01 -0.2335416812374E-01
-0.1601868104390E-01 -0.2434455806131E-01
-0.1699593153735E-01 -0.2537308719786E-01
-0.1802585856601E-01 -0.2644409749716E-01
-0.1911468252797E-01 -0.2756327217876E-01
-0.2027053182117E-01 -0.2873805946104E-01
-0.2150413828816E-01 -0.2997741891178E-01
-0.2282916193210E-01 -0.3129099968504E-01
-0.2426382852789E-01 -0.3269221039806E-01
-0.2583413330278E-01 -0.3420358244048E-01
-0.2758343365278E-01 -0.3586228629729E-01
-0.2957318043484E-01 -0.3773132482231E-01
-0.3198773028248E-01 -0.3992929185917E-01
-0.3486750304867E-01 -0.4287287001281E-01
-0.2373263584010E-01  0.1183083250660E-02
-0.2323642143034E-01  0.1579931613041E-02
-0.2263397101132E-01  0.1863281861940E-02
-0.2193262291873E-01  0.2097789661901E-02
-0.2116888799087E-01  0.2299836247548E-02
-0.2035770900370E-01  0.2477029899936E-02
-0.1951105914026E-01  0.2633370037376E-02
-0.1863798086326E-01  0.2771222366617E-02
-0.1774623667288E-01  0.2892283051342E-02
-0.1684289257582E-01  0.2996886277132E-02
-0.1593440333256E-01  0.3084819590551E-02
-0.1502648660743E-01  0.3156304100920E-02
-0.1412421624704E-01  0.3211734105170E-02
-0.1323210848213E-01  0.3251507968692E-02
-0.1235414618931E-01  0.3275855091884E-02
-0.1149378165104E-01  0.3284691696805E-02
-0.1065392374345E-01  0.3277621511161E-02
-0.9836968545623E-02  0.3254170361634E-02
-0.9044898234402E-02  0.3214371451835E-02
-0.8279419059176E-02  0.3159293610848E-02
-0.7542044438898E-02  0.3090081627802E-02
-0.6834118398061E-02  0.3007776001911E-02
-0.6156842110762E-02  0.2913327846949E-02
-0.5511302208148E-02  0.2807611084493E-02
-0.4898464030183E-02  0.2691428256742E-02
-0.4319244683317E-02  0.2565529861672E-02
-0.3774474493506E-02  0.2430617164473E-02
-0.3264938580225E-02  0.2287359847280E-02
-0.2791378760135E-02  0.2136409319849E-02
-0.2354497076505E-02  0.1978414343531E-02
-0.1954955387239E-02  0.1814038797732E-02
-0.1593368050898E-02  0.1643981631638E-02
-0.1270283324627E-02  0.1468998805400E-02
-0.9861524993243E-03  0.1289928939319E-02
-0.7412722958261E-03  0.1107723842460E-02
-0.5356954427283E-03  0.9234824431369E-03
-0.3690137406492E-03  0.7384983390600E-03
-0.2401136498833E-03  0.5542973269515E-03
-0.1457371253563E-03  0.3724666357200E-03
-0.7982983654320E-04  0.1965119945094E-03
-0.5410172641555E+00 -0.4848464751412E+00
-0.5306199294188E+00 -0.4862390431143E+00
-0.5198603735301E+00 -0.4873783086825E+00
-0.5087441646862E+00 -0.4882132727083E+00
-0.4972851255740E+00 -0.4886955387218E+00
-0.4855020570277E+00 -0.4887800497413E+00
-0.4734172738048E+00 -0.4884252642141E+00
-0.4610556800933E+00 -0.4875929790274E+00
-0.4484442992533E+00 -0.4862484260443E+00
-0.4356118012989E+00 -0.4843604317978E+00
-0.4225882154819E+00 -0.4819015688128E+00
-0.4094047318121E+00 -0.4788481839325E+00
-0.3960935919498E+00 -0.4751806852432E+00
-0.3826879741025E+00 -0.4708839672471E+00
-0.3692218401853E+00 -0.4659477396994E+00
-0.3557297236261E+00 -0.4603667672676E+00
-0.3422464988798E+00 -0.4541410408268E+00
-0.3288071175096E+00 -0.4472758778047E+00
-0.3154463220146E+00 -0.4397819525320E+00
-0.3021983433353E+00 -0.4316752552130E+00
-0.2890965892881E+00 -0.4229769779014E+00
-0.2761733246260E+00 -0.4137133610133E+00
-0.2634593505852E+00 -0.4039155071144E+00
-0.2509836715544E+00 -0.3936190785478E+00
-0.2387731698521E+00 -0.3828639098065E+00
-0.2268523035816E+00 -0.3716935390279E+00
-0.2152428386026E+00 -0.3601546555407E+00
-0.2039636289970E+00 -0.3482964718514E+00
-0.1930304312801E+00 -0.3361700156122E+00
-0.1824557661172E+00 -0.3238274251451E+00
-0.1722487540186E+00 -0.3113213645514E+00
-0.1624149338178E+00 -0.2987045643055E+00
-0.1529561366835E+00 -0.2860291764119E+00
-0.1438704484770E+00 -0.2733461383373E+00
-0.1351521684162E+00 -0.2607043716465E+00
-0.1267918702487E+00 -0.2481503039758E+00
-0.1187761210786E+00 -0.2357275833292E+00
-0.1110862267520E+00 -0.2234765601561E+00
-0.1036944595590E+00 -0.2114341729981E+00
-0.5304729459447E+00 -0.4547521458006E+00
-0.5093349567403E+00 -0.4263389326933E+00
-0.4876148226422E+00 -0.3979695807476E+00
-0.4652736170612E+00 -0.3696899279728E+00
-0.4422932663331E+00 -0.3415617949407E+00
-0.4186665629238E+00 -0.3136498899724E+00
-0.3943791268330E+00 -0.2860276071884E+00
-0.3694241341431E+00 -0.2587837515340E+00
-0.3438124060219E+00 -0.2320288626880E+00
-0.3175774390778E+00 -0.2059003845658E+00
-0.2907700940137E+00 -0.1805626009713E+00
-0.2634440898034E+00 -0.1562015768290E+00
-0.2356452494601E+00 -0.1330202963150E+00
-0.2074170636328E+00 -0.1112373972418E+00
-0.1788192621883E+00 -0.9108639286326E-01
-0.1499388160125E+00 -0.7280925532009E-01
-0.1208870695736E+00 -0.5664656358014E-01
-0.9181453471584E-01 -0.4282872520533E-01
-0.6292971377925E-01 -0.3155254633328E-01
-0.8088152296757E-01 -0.1877529799956E+00
-0.6601893152345E-01 -0.1758631768240E+00
-0.5200127814281E-01 -0.1638859238532E+00
-0.3888308374620E-01 -0.1518674132914E+00
-0.2671392940322E-01 -0.1398762652391E+00
-0.1554253518184E-01 -0.1279785566506E+00
-0.5440263616517E-02 -0.1162345496789E+00
 0.3508898298019E-02 -0.1046980796336E+00
 0.1121381056790E-01 -0.9341735034654E-01
 0.1757722937862E-01 -0.8243883607746E-01
 0.2249197609031E-01 -0.7181450593705E-01
 0.2583339396647E-01 -0.6160847399535E-01
 0.2745240773577E-01 -0.5189830588764E-01
 0.2717505995850E-01 -0.4277056996163E-01
 0.2480626614139E-01 -0.3431539554558E-01
 0.2013488728440E-01 -0.2662006766615E-01
 0.1293794845499E-01 -0.1975697755800E-01
 0.2970390255698E-02 -0.1377633808661E-01
-0.1005057843551E-01 -0.8702227364060E-02
-0.5830405070976E+00 -0.5055370280934E+00
-0.6141870066510E+00 -0.5264661407193E+00
-0.6442500793707E+00 -0.5458579978005E+00
-0.6730040151277E+00 -0.5635443979941E+00
-0.7002308578038E+00 -0.5793740780007E+00
-0.7257194783322E+00 -0.5932234603383E+00
-0.7492676488386E+00 -0.6050019177139E+00
-0.7706853258737E+00 -0.6146568904647E+00
-0.7897984682903E+00 -0.6221786088331E+00
-0.8064536167237E+00 -0.6276047017984E+00
-0.8205236690359E+00 -0.6310247226622E+00
-0.8319154865611E+00 -0.6325845420675E+00
-0.8405801811172E+00 -0.6324903923389E+00
-0.8465271643647E+00 -0.6310120389798E+00
-0.8498431949874E+00 -0.6284839498449E+00
-0.8507173306815E+00 -0.6253020522437E+00
-0.8494712094670E+00 -0.6219112900748E+00
-0.8465874019989E+00 -0.6187733765543E+00
-0.8427142400393E+00 -0.6162965995523E+00
-0.1005540444798E+00 -0.1928902313886E+00
-0.1059478113423E+00 -0.1845197301131E+00
-0.1128365440875E+00 -0.1746781470407E+00
-0.1212450254102E+00 -0.1635166327462E+00
-0.1311645966251E+00 -0.1511925699586E+00
-0.1425555243544E+00 -0.1378783529531E+00
-0.1553450457134E+00 -0.1237575969168E+00
-0.1694258210717E+00 -0.1090189162170E+00
-0.1846568270651E+00 -0.9384763733411E-01
-0.2008670650632E+00 -0.7841646405586E-01
-0.2178622505725E+00 -0.6287579520139E-01
-0.2354344452579E+00 -0.4734454480524E-01
-0.2533742672030E+00 -0.3190254367143E-01
-0.2714847282661E+00 -0.1658589339355E-01
-0.2895948604827E+00 -0.1386845966783E-02
-0.3075702973075E+00  0.1374041051499E-01
-0.3253173220206E+00  0.2886755914881E-01
-0.3427779077562E+00  0.4407503668788E-01
-0.3599144705653E+00  0.5943243845247E-01
-0.5627610295848E-03 -0.1050614258059E-02
-0.1034393953164E-02 -0.2034872071184E-02
-0.1417477985815E-02 -0.2928127021115E-02
-0.1778381031265E-02 -0.3791761294676E-02
-0.2131083618140E-02 -0.4636484018319E-02
-0.2486922407845E-02 -0.5469947631077E-02
-0.2852436229610E-02 -0.6296022067128E-02
-0.3232208542982E-02 -0.7117102552468E-02
-0.3629455272278E-02 -0.7934710379533E-02
-0.4046524531903E-02 -0.8749884414765E-02
-0.4485154639546E-02 -0.9563384115954E-02
-0.4946648579280E-02 -0.1037581447935E-01
-0.5431991445604E-02 -0.1118770866655E-01
-0.5941933599985E-02 -0.1199958308483E-01
-0.6477052930139E-02 -0.1281197901129E-01
-0.7037805324056E-02 -0.1362549905774E-01
-0.7624572266676E-02 -0.1444084813264E-01
-0.8237669021675E-02 -0.1525882841606E-01
-0.8877428740723E-02 -0.1608044741592E-01
-0.9544181460410E-02 -0.1690689638702E-01
-0.1023830991554E-01 -0.1773965533872E-01
-0.1096026722779E-01 -0.1858060548251E-01
-0.1171062975949E-01 -0.1943222157676E-01
-0.1249056870763E-01 -0.2029781635227E-01
-0.1330259510385E-01 -0.2118202606888E-01
-0.1415023790432E-01 -0.2208966693974E-01
-0.1503739939951E-01 -0.2302495458322E-01
-0.1596811962771E-01 -0.2399154381787E-01
-0.1694673190760E-01 -0.2499296666394E-01
-0.1797826095788E-01 -0.2603317396113E-01
-0.1906898027669E-01 -0.2711701799824E-01
-0.2022714130972E-01 -0.2825057736212E-01
-0.2146359072267E-01 -0.2944152244662E-01
-0.2279204846861E-01 -0.3069845662807E-01