<VTKFile type="UnstructuredGrid" version="1,0" byte_order="LittleEndian">
<UnstructuredGrid>
<Piece NumberOfPoints="5802" NumberOfCells="5680">
<Points>
<DataArray type="Float64" NumberOfComponents="3" format="ascii">
-0.1100000000000E+01 -0.4304044648606E+01  0.0000000000000E+00
 0.0000000000000E+00 -0.4304044648606E+01  0.0000000000000E+00
 0.1100000000000E+01 -0.4304044648606E+01  0.0000000000000E+00
-0.1426338184892E+01 -0.1495137730994E+01  0.0000000000000E+00
-0.7131690856113E+00 -0.1351817918288E+01  0.0000000000000E+00
 0.7131690992823E+00 -0.1351817920119E+01  0.0000000000000E+00
 0.1426338184892E+01 -0.1495137730994E+01  0.0000000000000E+00
-0.1297471036855E+01  0.8924645033579E+00  0.0000000000000E+00
 0.1297471037589E+01  0.8924645030013E+00  0.0000000000000E+00
-0.7500000000000E+00  0.3449934570704E+00  0.0000000000000E+00
 0.7500000000000E+00  0.3449934570704E+00  0.0000000000000E+00
-0.1072500000000E+01 -0.4304044648606E+01  0.0000000000000E+00
-0.1045000000000E+01 -0.4304044648606E+01  0.0000000000000E+00
-0.1017500000000E+01 -0.4304044648606E+01  0.0000000000000E+00
-0.9900000000000E+00 -0.4304044648606E+01  0.0000000000000E+00
-0.9625000000000E+00 -0.4304044648606E+01  0.0000000000000E+00
-0.9350000000000E+00 -0.4304044648606E+01  0.0000000000000E+00
-0.9075000000000E+00 -0.4304044648606E+01  0.0000000000000E+00
-0.8800000000000E+00 -0.4304044648606E+01  0.0000000000000E+00
-0.8525000000000E+00 -0.4304044648606E+01  0.0000000000000E+00
-0.8250000000000E+00 -0.4304044648606E+01  0.0000000000000E+00
-0.7975000000000E+00 -0.4304044648606E+01  0.0000000000000E+00
-0.7700000000000E+00 -0.4304044648606E+01  0.0000000000000E+00
-0.7425000000000E+00 -0.4304044648606E+01  0.0000000000000E+00
-0.7150000000000E+00 -0.4304044648606E+01  0.0000000000000E+00
-0.6875000000000E+00 -0.4304044648606E+01  0.0000000000000E+00
-0.6600000000000E+00 -0.4304044648606E+01  0.0000000000000E+00
-0.6325000000000E+00 -0.4304044648606E+01  0.0000000000000E+00
-0.6050000000000E+00 -0.4304044648606E+01  0.0000000000000E+00
-0.5775000000000E+00 -0.4304044648606E+01  0.0000000000000E+00
-0.5500000000000E+00 -0.4304044648606E+01  0.0000000000000E+00
-0.5225000000000E+00 -0.4304044648606E+01  0.0000000000000E+00
-0.4950000000000E+00 -0.4304044648606E+01  0.0000000000000E+00
-0.4675000000000E+00 -0.4304044648606E+01  0.0000000000000E+00
-0.4400000000000E+00 -0.4304044648606E+01  0.0000000000000E+00
-0.4125000000000E+00 -0.4304044648606E+01  0.0000000000000E+00
-0.3850000000000E+00 -0.4304044648606E+01  0.0000000000000E+00
-0.3575000000000E+00 -0.4304044648606E+01  0.0000000000000E+00
-0.3300000000000E+00 -0.4304044648606E+01  0.0000000000000E+00
-0.3025000000000E+00 -0.4304044648606E+01  0.0000000000000E+00
-0.2750000000000E+00 -0.4304044648606E+01  0.0000000000000E+00
-0.2475000000000E+00 -0.4304044648606E+01  0.0000000000000E+00
-0.2200000000000E+00 -0.4304044648606E+01  0.0000000000000E+00
-0.1925000000000E+00 -0.4304044648606E+01  0.0000000000000E+00
-0.1650000000000E+00 -0.4304044648606E+01  0.0000000000000E+00
-0.1375000000000E+00 -0.4304044648606E+01  0.0000000000000E+00
-0.1100000000000E+00 -0.4304044648606E+01  0.0000000000000E+00
-0.8250000000000E-01 -0.4304044648606E+01  0.0000000000000E+00
-0.5500000000000E-01 -0.4304044648606E+01  0.0000000000000E+00
-0.2750000000000E-01 -0.4304044648606E+01  0.0000000000000E+00
 0.2750000000000E-01 -0.4304044648606E+01  0.0000000000000E+00
 0.5500000000000E-01 -0.4304044648606E+01  0.0000000000000E+00
 0.8250000000000E-01 -0.4304044648606E+01  0.0000000000000E+00
 0.1100000000000E+00 -0.4304044648606E+01  0.0000000000000E+00
 0.1375000000000E+00 -0.4304044648606E+01  0.0000000000000E+00
 0.1650000000000E+00 -0.4304044648606E+01  0.0000000000000E+00
 0.1925000000000E+00 -0.4304044648606E+01  0.0000000000000E+00
 0.2200000000000E+00 -0.4304044648606E+01  0.0000000000000E+00
 0.2475000000000E+00 -0.4304044648606E+01  0.0000000000000E+00
 0.2750000000000E+00 -0.4304044648606E+01  0.0000000000000E+00
 0.3025000000000E+00 -0.4304044648606E+01  0.0000000000000E+00
 0.3300000000000E+00 -0.4304044648606E+01  0.0000000000000E+00
 0.3575000000000E+00 -0.4304044648606E+01  0.0000000000000E+00
 0.3850000000000E+00 -0.4304044648606E+01  0.0000000000000E+00
 0.4125000000000E+00 -0.4304044648606E+01  0.0000000000000E+00
 0.4400000000000E+00 -0.4304044648606E+01  0.0000000000000E+00
 0.4675000000000E+00 -0.4304044648606E+01  0.0000000000000E+00
 0.4950000000000E+00 -0.4304044648606E+01  0.0000000000000E+00
 0.5225000000000E+00 -0.4304044648606E+01  0.0000000000000E+00
 0.5500000000000E+00 -0.4304044648606E+01  0.0000000000000E+00
 0.5775000000000E+00 -0.4304044648606E+01  0.0000000000000E+00
 0.6050000000000E+00 -0.4304044648606E+01  0.0000000000000E+00
 0.6325000000000E+00 -0.4304044648606E+01  0.0000000000000E+00
 0.6600000000000E+00 -0.4304044648606E+01  0.0000000000000E+00
 0.6875000000000E+00 -0.4304044648606E+01  0.0000000000000E+00
 0.7150000000000E+00 -0.4304044648606E+01  0.0000000000000E+00
 0.7425000000000E+00 -0.4304044648606E+01  0.0000000000000E+00
 0.7700000000000E+00 -0.4304044648606E+01  0.0000000000000E+00
 0.7975000000000E+00 -0.4304044648606E+01  0.0000000000000E+00
 0.8250000000000E+00 -0.4304044648606E+01  0.0000000000000E+00
 0.8525000000000E+00 -0.4304044648606E+01  0.0000000000000E+00
 0.8800000000000E+00 -0.4304044648606E+01  0.0000000000000E+00
 0.9075000000000E+00 -0.4304044648606E+01  0.0000000000000E+00
 0.9350000000000E+00 -0.4304044648606E+01  0.0000000000000E+00
 0.9625000000000E+00 -0.4304044648606E+01  0.0000000000000E+00
 0.9900000000000E+00 -0.4304044648606E+01  0.0000000000000E+00
 0.1017500000000E+01 -0.4304044648606E+01  0.0000000000000E+00
 0.1045000000000E+01 -0.4304044648606E+01  0.0000000000000E+00
 0.1072500000000E+01 -0.4304044648606E+01  0.0000000000000E+00
-0.1391152984612E+01 -0.1485826169004E+01  0.0000000000000E+00
-0.1355910848380E+01 -0.1476732672072E+01  0.0000000000000E+00
-0.1320612835817E+01 -0.1467858633912E+01  0.0000000000000E+00
-0.1285259981017E+01 -0.1459205415754E+01  0.0000000000000E+00
-0.1249853511796E+01 -0.1450774398559E+01  0.0000000000000E+00
-0.1214394584761E+01 -0.1442566916018E+01  0.0000000000000E+00
-0.1178884329493E+01 -0.1434584266595E+01  0.0000000000000E+00
-0.1143323993112E+01 -0.1426827745365E+01  0.0000000000000E+00
-0.1107714835036E+01 -0.1419298618073E+01  0.0000000000000E+00
-0.1072058114862E+01 -0.1411998118171E+01  0.0000000000000E+00
-0.1036355114016E+01 -0.1404927450906E+01  0.0000000000000E+00
-0.1000607103274E+01 -0.1398087786375E+01  0.0000000000000E+00
-0.9648154637952E+00 -0.1391480281711E+01  0.0000000000000E+00
-0.9289815514207E+00 -0.1385106053576E+01  0.0000000000000E+00
-0.8931067449032E+00 -0.1378966186997E+01  0.0000000000000E+00
-0.8571924453329E+00 -0.1373061734396E+01  0.0000000000000E+00
-0.8212400755349E+00 -0.1367393714636E+01  0.0000000000000E+00
-0.7852510794390E+00 -0.1361963112090E+01  0.0000000000000E+00
-0.7492269214199E+00 -0.1356770875739E+01  0.0000000000000E+00
-0.6777056485815E+00 -0.1347184849055E+01  0.0000000000000E+00
-0.6422126030433E+00 -0.1342784468384E+01  0.0000000000000E+00
-0.6066914054888E+00 -0.1338617534531E+01  0.0000000000000E+00
-0.5711435255488E+00 -0.1334684768748E+01  0.0000000000000E+00
-0.5355704233029E+00 -0.1330986852489E+01  0.0000000000000E+00
-0.4999736369017E+00 -0.1327524435880E+01  0.0000000000000E+00
-0.4643546817971E+00 -0.1324298126257E+01  0.0000000000000E+00
-0.4287150862649E+00 -0.1321308491716E+01  0.0000000000000E+00
-0.3930563807228E+00 -0.1318556059836E+01  0.0000000000000E+00
-0.3573801183139E+00 -0.1316041318931E+01  0.0000000000000E+00
-0.3216878730590E+00 -0.1313764717124E+01  0.0000000000000E+00
-0.2859812157621E+00 -0.1311726660302E+01  0.0000000000000E+00
-0.2502617257092E+00 -0.1309927512732E+01  0.0000000000000E+00
-0.2145309892672E+00 -0.1308367596678E+01  0.0000000000000E+00
-0.1787905926666E+00 -0.1307047191884E+01  0.0000000000000E+00
-0.1430421463503E+00 -0.1305966536203E+01  0.0000000000000E+00
-0.1072872541886E+00 -0.1305125824139E+01  0.0000000000000E+00
-0.7152752388590E-01 -0.1304525207180E+01  0.0000000000000E+00
-0.3576456602431E-01 -0.1304164793652E+01  0.0000000000000E+00
 0.6896563736758E-08 -0.1304044648606E+01  0.0000000000000E+00
 0.3576457981713E-01 -0.1304164793745E+01  0.0000000000000E+00
 0.7152753767778E-01 -0.1304525207365E+01  0.0000000000000E+00
 0.1072872679789E+00 -0.1305125824417E+01  0.0000000000000E+00
 0.1430421601384E+00 -0.1305966536574E+01  0.0000000000000E+00
 0.1787906064519E+00 -0.1307047192347E+01  0.0000000000000E+00
 0.2145310030492E+00 -0.1308367597233E+01  0.0000000000000E+00
 0.2502617394871E+00 -0.1309927513380E+01  0.0000000000000E+00
 0.2859812295354E+00 -0.1311726661042E+01  0.0000000000000E+00
 0.3216878868270E+00 -0.1313764717956E+01  0.0000000000000E+00
 0.3573801320760E+00 -0.1316041319855E+01  0.0000000000000E+00
 0.3930563944785E+00 -0.1318556060852E+01  0.0000000000000E+00
 0.4287151000135E+00 -0.1321308492824E+01  0.0000000000000E+00
 0.4643546955381E+00 -0.1324298127456E+01  0.0000000000000E+00
 0.4999736506343E+00 -0.1327524437170E+01  0.0000000000000E+00
 0.5355704370268E+00 -0.1330986853870E+01  0.0000000000000E+00
 0.5711435392633E+00 -0.1334684770220E+01  0.0000000000000E+00
 0.6066914191932E+00 -0.1338617536093E+01  0.0000000000000E+00
 0.6422126167371E+00 -0.1342784470036E+01  0.0000000000000E+00
 0.6777056622642E+00 -0.1347184850797E+01  0.0000000000000E+00
 0.7492269343955E+00 -0.1356770877566E+01  0.0000000000000E+00
 0.7852510917199E+00 -0.1361963113902E+01  0.0000000000000E+00
 0.8212400871220E+00 -0.1367393716423E+01  0.0000000000000E+00
 0.8571924562271E+00 -0.1373061736151E+01  0.0000000000000E+00
 0.8931067551055E+00 -0.1378966188709E+01  0.0000000000000E+00
 0.9289815609321E+00 -0.1385106055236E+01  0.0000000000000E+00
 0.9648154726170E+00 -0.1391480283310E+01  0.0000000000000E+00
 0.1000607111408E+01 -0.1398087787904E+01  0.0000000000000E+00
[...]
<PointData Vectors="'U'">
<DataArray type="Float64" Name="U" NumberOfComponents="2" ComponentName0="U1" ComponentName1="U2" format="ascii">
 0.1184115444849E-37  0.3139242936194E-37
 0.1211834929574E-37 -0.8573762832653E-37
 0.8537440493262E-37 -0.2173307523222E-36
 0.1674034650637E-01 -0.1977139074516E-01
 0.2544651737962E-01 -0.9747849273078E-02
 0.3867375917808E-01 -0.2524353660385E-01
 0.4521085345052E-01 -0.5869332033764E-01
 0.1865572294199E+00 -0.4446337007723E+00
 0.7011095797558E+00 -0.3166121404369E+00
 0.8848292322376E-01 -0.6727929455657E+00
 0.6982476359056E+00 -0.3783689814630E+00
 0.3647523875321E-38  0.3881001575772E-37
 0.3888686184935E-38  0.3083429739019E-37
 0.3658710128230E-38  0.2486894213401E-37
 0.3472242131419E-38  0.1973738470601E-37
 0.3383618873994E-38  0.1508172020014E-37
 0.3382116217598E-38  0.1074920346098E-37
 0.3450104356917E-38  0.6659212132330E-38
 0.3572385502185E-38  0.2762932716301E-38
 0.3737051444349E-38 -0.9721128408571E-39
 0.3934899510304E-38 -0.4569073356888E-38
 0.4158761785270E-38 -0.8045339713152E-38
 0.4402978489588E-38 -0.1141453244764E-37
 0.4663017303943E-38 -0.1468768536323E-37
 0.4935202529732E-38 -0.1787398857734E-37
 0.5216522156881E-38 -0.2098127602836E-37
 0.5504488341452E-38 -0.2401635660315E-37
 0.5797035250254E-38 -0.2698524567032E-37
 0.6092443707876E-38 -0.2989332994340E-37
 0.6389288919711E-38 -0.3274548158183E-37
 0.6686452169120E-38 -0.3554613822577E-37
 0.6983354942352E-38 -0.3829999472562E-37
 0.7278179984514E-38 -0.4101011591896E-37
 0.7570820234852E-38 -0.4368038164744E-37
 0.7860784082289E-38 -0.4631419713792E-37
 0.8147703219525E-38 -0.4891477682667E-37
 0.8431323097003E-38 -0.5148517073110E-37
 0.8711493065375E-38 -0.5402828363837E-37
 0.8988157865869E-38 -0.5654689069776E-37
 0.9261350104243E-38 -0.5904365034275E-37
 0.9531183737254E-38 -0.6152111536326E-37
 0.9797848328800E-38 -0.6398174253535E-37
 0.1006160400283E-37 -0.6642790118710E-37
 0.1032277701857E-37 -0.6886188103685E-37
 0.1058175582591E-37 -0.7128589948367E-37
 0.1083898759158E-37 -0.7370210857333E-37
 0.1109497515285E-37 -0.7611260184967E-37
 0.1135027432489E-37 -0.7851942116660E-37
 0.1160549164029E-37 -0.8092456371575E-37
 0.1186128243063E-37 -0.8332998934309E-37
 0.1237744096823E-37 -0.8814938976457E-37
 0.1263935159646E-37 -0.9056717073476E-37
 0.1290492048663E-37 -0.9299286640545E-37
 0.1317503234953E-37 -0.9542838130596E-37
 0.1345061810892E-37 -0.9787564198471E-37
 0.1373265635338E-37 -0.1003366113317E-36
 0.1402217551557E-37 -0.1028133049057E-36
 0.1432025689349E-37 -0.1053078096042E-36
 0.1462803869807E-37 -0.1078223052558E-36
 0.1494672122405E-37 -0.1103590896210E-36
 0.1527757342367E-37 -0.1129206075884E-36
 0.1562194111580E-37 -0.1155094854826E-36
 0.1598125715290E-37 -0.1181285715949E-36
 0.1635705400261E-37 -0.1207809844829E-36
 0.1675097920566E-37 -0.1234701709516E-36
 0.1716481433688E-37 -0.1261999762060E-36
 0.1760049820907E-37 -0.1289747297426E-36
 0.1806015481441E-37 -0.1317993519740E-36
 0.1854612416856E-37 -0.1346794923290E-36
 0.1906085736687E-37 -0.1376217285265E-36
 0.1960714509957E-37 -0.1406330473315E-36
 0.2018903912244E-37 -0.1437232091299E-36
 0.2080991871877E-37 -0.1469026226146E-36
 0.2147416524887E-37 -0.1501841039386E-36
 0.2218689910448E-37 -0.1535832617698E-36
 0.2295416538011E-37 -0.1571193392558E-36
 0.2378318356601E-37 -0.1608163969192E-36
 0.2468268272616E-37 -0.1647050047972E-36
 0.2566335565693E-37 -0.1688247243141E-36
 0.2673847860809E-37 -0.1732278572556E-36
 0.2792475397312E-37 -0.1779853070698E-36
 0.2924342240116E-37 -0.1831961276443E-36
 0.3072157069775E-37 -0.1890038750972E-36
 0.3239301274482E-37 -0.1956264217064E-36
 0.3429582433053E-37 -0.2034149286628E-36
 0.3645377874921E-37 -0.2129841035324E-36
 0.3878215012581E-37 -0.2255484434255E-36
 0.4059248479581E-37 -0.2440120916138E-36
 0.3742456000294E-37 -0.2778827919936E-36
 0.1707979409451E-01 -0.1562557151427E-01
 0.1766643874864E-01 -0.1334776135255E-01
 0.1825981928732E-01 -0.1188659164369E-01
 0.1881079405570E-01 -0.1088051090647E-01
 0.1932184201572E-01 -0.1016074499245E-01
 0.1980246877585E-01 -0.9637011113835E-02
 0.2026089803142E-01 -0.9256404894677E-02
 0.2070294467612E-01 -0.8985453773587E-02
 0.2113252829346E-01 -0.8801564675598E-02
 0.2155229438183E-01 -0.8688651952650E-02
 0.2196407134784E-01 -0.8634761475585E-02
 0.2236916551785E-01 -0.8630702949319E-02
 0.2276854116913E-01 -0.8669219833583E-02
 0.2316293178082E-01 -0.8744461095308E-02
 0.2355290449249E-01 -0.8851631763195E-02
 0.2393889523174E-01 -0.8986754574088E-02
 0.2432121895836E-01 -0.9146504229931E-02
 0.2470004641534E-01 -0.9328091588359E-02
 0.2507532624730E-01 -0.9529164517599E-02
 0.2580930894542E-01 -0.9978126965341E-02
 0.2617065523344E-01 -0.1021998944874E-01
 0.2653040978331E-01 -0.1047279170980E-01
 0.2688857980526E-01 -0.1073559497154E-01
 0.2724519169892E-01 -0.1100748384328E-01
 0.2760027990087E-01 -0.1128763501551E-01
 0.2795387685484E-01 -0.1157532880328E-01
 0.2830600768809E-01 -0.1186994820757E-01
 0.2865668805645E-01 -0.1217097432568E-01
 0.2900592327647E-01 -0.1247798065202E-01
 0.2935370858632E-01 -0.1279062770069E-01
 0.2970003011286E-01 -0.1310865829145E-01
 0.3004486577201E-01 -0.1343189307928E-01
 0.3038818645262E-01 -0.1376022672519E-01
 0.3072995733255E-01 -0.1409362460654E-01
 0.3107013891610E-01 -0.1443211966998E-01
 0.3140868859560E-01 -0.1477581019054E-01
 0.3174556178015E-01 -0.1512485750314E-01
 0.3208071308243E-01 -0.1547948416699E-01
 0.3241409743761E-01 -0.1583997244001E-01
 0.3274567112811E-01 -0.1620666303856E-01
 0.3307539274967E-01 -0.1657995423234E-01
 0.3340322408114E-01 -0.1696030125399E-01
 0.3372913082365E-01 -0.1734821600787E-01
 0.3405308325038E-01 -0.1774426715556E-01
 0.3437505674939E-01 -0.1814908059965E-01
 0.3469503215700E-01 -0.1856334028132E-01
 0.3501299635303E-01 -0.1898778995944E-01
 0.3532894224695E-01 -0.1942323494125E-01
 0.3564286893875E-01 -0.1987054483832E-01
 0.3595478170447E-01 -0.2033065703023E-01
 0.3626469172744E-01 -0.2080458085224E-01
 0.3657261595386E-01 -0.2129340330051E-01
 0.3687857646660E-01 -0.2179829568423E-01
 0.3718259913950E-01 -0.2232052130826E-01
 0.3748471137437E-01 -0.2286144503139E-01
 0.3778493707214E-01 -0.2342254245570E-01
 0.3808328211186E-01 -0.2400541306459E-01
 0.3837971439212E-01 -0.2461173791247E-01
 0.3897173592988E-01 -0.2591541433505E-01
 0.3926860432053E-01 -0.2661838150638E-01
 0.3956435523428E-01 -0.2735532740240E-01
 0.3985903861345E-01 -0.2812938339799E-01
 0.4015280445341E-01 -0.2894413946847E-01
 0.4044589613625E-01 -0.2980376462495E-01
 0.4073866607431E-01 -0.3071316320956E-01
 0.4103161111982E-01 -0.3167818739858E-01
 0.4132543483636E-01 -0.3270593909529E-01
 0.4162114938349E-01 -0.3380521081845E-01
 0.4192024309724E-01 -0.3498716162013E-01
 0.4222495090917E-01 -0.3626637692093E-01
 0.4253869397081E-01 -0.3766263413451E-01
 0.4286676728230E-01 -0.3920398915500E-01
 0.4321730821406E-01 -0.4093249484005E-01
 0.4360224877768E-01 -0.4291545732900E-01
 0.4403636054747E-01 -0.4526917547088E-01
 0.4452732956732E-01 -0.4821358679733E-01
 0.4501897936353E-01 -0.5222457491610E-01
-0.8457881346495E-01 -0.1042399561448E+00
-0.1378065503871E+00 -0.1613603192696E+00
-0.1791160797427E+00 -0.1939009655380E+00
-0.2100179217638E+00 -0.2109304372629E+00
-0.2318287596678E+00 -0.2176984601794E+00
-0.2453550900721E+00 -0.2179019788858E+00
-0.2512167603918E+00 -0.2136640933507E+00
-0.2497745519323E+00 -0.2064553474110E+00
-0.2412750625937E+00 -0.1975136501881E+00
-0.2258585096104E+00 -0.1880208562797E+00
-0.2036953155305E+00 -0.1793173690887E+00
-0.1751681511311E+00 -0.1722236723016E+00
-0.1410135222678E+00 -0.1704561894263E+00
-0.1033025100875E+00 -0.1778097867128E+00
-0.6333141524695E-01 -0.1941776056876E+00
-0.2118093745647E-01 -0.2196106343072E+00
 0.2406042063718E-01 -0.2544105516025E+00
 0.7316895377451E-01 -0.3003912379427E+00
 0.1266434646758E+00 -0.3612947602752E+00
 0.2155004204951E+00 -0.4937838402342E+00
 0.2487702361893E+00 -0.5561501679717E+00
 0.2860893326296E+00 -0.6306465788624E+00
 0.3241092666754E+00 -0.7112206965185E+00
 0.3606010091262E+00 -0.7928882261033E+00
 0.3945394097475E+00 -0.8724024222613E+00
 0.4252897111598E+00 -0.9474177964246E+00
 0.4519048821171E+00 -0.1016226525382E+01
 0.4733350579875E+00 -0.1077422567158E+01
 0.4894207601160E+00 -0.1129726792330E+01
 0.5005451178871E+00 -0.1172051436713E+01
 0.5073385365592E+00 -0.1203540156321E+01
 0.5105311885998E+00 -0.1223572849848E+01
 0.5108870845501E+00 -0.1231756399299E+01
 0.5091770701210E+00 -0.1227915490181E+01
 0.5061688847126E+00 -0.1212088826940E+01
 0.5026240703142E+00 -0.1184529614561E+01
 0.4992978998117E+00 -0.1145713952013E+01
 0.4969404274251E+00 -0.1096357242039E+01
 0.4962981390452E+00 -0.1037442584266E+01
 0.4980684211735E+00 -0.9702788531969E+00
 0.5027094269139E+00 -0.8965988172814E+00
 0.5104614607907E+00 -0.8186339422618E+00
 0.5212732166820E+00 -0.7393693950343E+00
 0.5344822800404E+00 -0.6631895333291E+00
 0.5484780575154E+00 -0.5976242258784E+00
 0.5621628780381E+00 -0.5459658895528E+00
 0.5756813102130E+00 -0.5044416180659E+00
 0.5890541449776E+00 -0.4698373599386E+00
 0.6021852718260E+00 -0.4405781545448E+00
 0.6150196880579E+00 -0.4157043799068E+00
 0.6274773305901E+00 -0.3945593239052E+00
 0.6394065854299E+00 -0.3766398751389E+00
 0.6505669892738E+00 -0.3615194388915E+00
 0.6608809622227E+00 -0.3488986862797E+00
 0.6703992896658E+00 -0.3385555230971E+00
 0.6791691764245E+00 -0.3302944472509E+00
 0.6872196269814E+00 -0.3239508770440E+00
 0.6945514151507E+00 -0.3193992856746E+00
 0.7130978728058E+00 -0.3146287390158E+00
 0.7216970731703E+00 -0.3175762129319E+00
 0.7267935703357E+00 -0.3243879267018E+00
 0.7280902107928E+00 -0.3340046610577E+00
 0.7253658227708E+00 -0.3452605290305E+00
 0.7185158629260E+00 -0.3567661805900E+00
 0.7077113297417E+00 -0.3671987940579E+00
 0.6932140474092E+00 -0.3754922373938E+00
 0.6748641530071E+00 -0.3824527910534E+00
 0.6521390569745E+00 -0.3887720922749E+00
 0.6247126745004E+00 -0.3930314971105E+00
 0.5921979814769E+00 -0.3945590795581E+00
 0.5542473124713E+00 -0.3924371432084E+00
 0.5104843802270E+00 -0.3853708463709E+00
 0.4603494189841E+00 -0.3719120779433E+00
 0.4031865471303E+00 -0.3495730761020E+00
 0.3383988929241E+00 -0.3138542308160E+00
 0.2647688286208E+00 -0.2588065953996E+00
 0.1814266205922E+00 -0.1740825373462E+00
 0.1363629882959E-03  0.2346674530880E-03
 0.2891331627349E-03  0.4169081942356E-03
 0.4896758798092E-03  0.5837834291037E-03
 0.7378344835331E-03  0.7348709723858E-03
 0.1033278288873E-02  0.8705329072431E-03
 0.1374559835263E-02  0.9905407751902E-03
 0.1760238909626E-02  0.1094487151977E-02
 0.2188834495551E-02  0.1181867690758E-02
 0.2658908482983E-02  0.1252100362147E-02
 0.3169062220152E-02  0.1304531233188E-02
 0.3717936826078E-02  0.1338427634080E-02
 0.4304200036607E-02  0.1352964735475E-02
 0.4926547285786E-02  0.1347205885613E-02
 0.5583689811038E-02  0.1320074287032E-02
 0.6274298853561E-02  0.1270319537116E-02
 0.6997101543229E-02  0.1196455937087E-02
 0.7750769957058E-02  0.1096685064906E-02
 0.8533965538954E-02  0.9687447107223E-03
 0.9345339241479E-02  0.8095247270082E-03
 0.1018311318896E-01  0.6151745525702E-03
 0.1104410759788E-01  0.3861328760618E-03
 0.1192378137809E-01  0.1250849140223E-03
 0.1281683788275E-01 -0.1659958295380E-03
 0.1371764572861E-01 -0.4866308875442E-03
 0.1462037422830E-01 -0.8376485337993E-03
 0.1551892485997E-01 -0.1220796684826E-02
 0.1640676899704E-01 -0.1638446703064E-02
 0.1727676724893E-01 -0.2093424249112E-02
 0.1812089146988E-01 -0.2588873771227E-02
 0.1892993544526E-01 -0.3127713947064E-02
 0.1969389298480E-01 -0.3712843487017E-02
 0.2040275333662E-01 -0.4349543715876E-02
 0.2104550281702E-01 -0.5046068521794E-02
 0.2160893215605E-01 -0.5814224210452E-02
 0.2207623474953E-01 -0.6671417416599E-02
 0.2242502884601E-01 -0.7644541220755E-02
 0.2262068986804E-01 -0.8778818851692E-02
 0.2261334156763E-01 -0.1015523184883E-01
 0.2226508550056E-01 -0.1194336479534E-01
 0.2146287135721E-01 -0.1467861519026E-01
 0.3723973785540E-01 -0.5109571431817E-01
 0.3437167394134E-01 -0.4671459719756E-01
 0.3203644017085E-01 -0.4364104089831E-01
 0.3010579980882E-01 -0.4115568266413E-01
 0.2840494610265E-01 -0.3902525005795E-01
 0.2687306495230E-01 -0.3713440430876E-01
 0.2546852062965E-01 -0.3541609975649E-01
 0.2416574629613E-01 -0.3382864329151E-01
 0.2294673606265E-01 -0.3234406264185E-01
 0.2179859027217E-01 -0.3094307996631E-01
 0.2071174532563E-01 -0.2961266214661E-01
 0.1967848409638E-01 -0.2834520475375E-01
 0.1869220241269E-01 -0.2713351612782E-01
 0.1774759419893E-01 -0.2596997325813E-01
 0.1684081489187E-01 -0.2484822786903E-01
 0.1596920713941E-01 -0.2376377013022E-01
 0.1513101928140E-01 -0.2271401931819E-01
 0.1432507113158E-01 -0.2169836800964E-01
 0.1355023145858E-01 -0.2071799918354E-01
 0.1280457929150E-01 -0.1977482781000E-01
 0.1208443256271E-01 -0.1886879066599E-01
 0.1138430032266E-01 -0.1799353729134E-01
 0.1069945441763E-01 -0.1713616247549E-01
 0.1002878587223E-01 -0.1628685263046E-01
 0.9372751301708E-02 -0.1544053886451E-01
 0.8731751229806E-02 -0.1459404735691E-01
 0.8106072080431E-02 -0.1374503451549E-01
 0.7495845081110E-02 -0.1289159393836E-01
 0.6901110258946E-02 -0.1203220054038E-01
 0.6321677284908E-02 -0.1116545397119E-01
 0.5757107314183E-02 -0.1029002842180E-01
 0.5206635564973E-02 -0.9404571431364E-02
 0.4669047167622E-02 -0.8507562147368E-02
 0.4142520758898E-02 -0.7597145244934E-02
 0.3624348173885E-02 -0.6670869778529E-02
 0.3110576383218E-02 -0.5725231467360E-02
 0.2594892019489E-02 -0.4754886091906E-02
 0.2068151973505E-02 -0.3750791951985E-02
 0.1509907664592E-02 -0.2694904200548E-02
 0.8902360533378E-03 -0.1560589977763E-02
 0.1094999277199E+00 -0.6918035277922E+00
 0.1311951234385E+00 -0.7096784637097E+00
 0.1535446469552E+00 -0.7262035668057E+00
 0.1764637923728E+00 -0.7412119045463E+00
 0.1998550057718E+00 -0.7545538762715E+00
 0.2236129824253E+00 -0.7660994896262E+00
 0.2476279256435E+00 -0.7757390834998E+00
 0.2717878517299E+00 -0.7833844413521E+00
 0.2959799330818E+00 -0.7889684619655E+00
 0.3200916348361E+00 -0.7924452172894E+00
 0.3440115908129E+00 -0.7937912733251E+00
 0.3676306987275E+00 -0.7930061902978E+00
 0.3908431565603E+00 -0.7901124148402E+00
 0.4135474386904E+00 -0.7851548562056E+00
 0.4356472368771E+00 -0.7782002574589E+00
 0.4570524228781E+00 -0.7693363646698E+00
 0.4776799966059E+00 -0.7586708766978E+00
 0.4974550697177E+00 -0.7463301470885E+00
 0.5163118749638E+00 -0.7324576008286E+00
 0.5341947894152E+00 -0.7172118424700E+00
 0.5510593294864E+00 -0.7007643805142E+00
 0.5668730112007E+00 -0.6832967867115E+00
 0.5816160380563E+00 -0.6649976131253E+00
 0.5952817341727E+00 -0.6460590170082E+00
 0.6078766289389E+00 -0.6266730770044E+00
 0.6194200912176E+00 -0.6070278938889E+00
 0.6299434238502E+00 -0.5873036304981E+00
 0.6394883843903E+00 -0.5676688328641E+00
 0.6481052372405E+00 -0.5482774114349E+00
 0.6558504971004E+00 -0.5292665415297E+00
 0.6627845790196E+00 -0.5107554667468E+00
 0.6689695165722E+00 -0.4928451247517E+00
 0.6744668711635E+00 -0.4756184579143E+00
 0.6793358956902E+00 -0.4591415440905E+00
 0.6836321654628E+00 -0.4434660591402E+00
 0.6874068258106E+00 -0.4286319347173E+00
 0.6907063960544E+00 -0.4146699999995E+00
 0.6935739387593E+00 -0.4016072408871E+00
 0.6960541970519E+00 -0.3894783433700E+00
 0.6996326147348E-01 -0.6261101827060E+00
 0.5329412917732E-01 -0.5807393556616E+00
 0.3812185355647E-01 -0.5365497037898E+00
 0.2420868813648E-01 -0.4935605788862E+00
 0.1143663959658E-01 -0.4517742551295E+00
-0.2332165502425E-03 -0.4111768291759E+00
-0.1077722820952E-01 -0.3717458976288E+00
-0.2012489701697E-01 -0.3334600811668E+00
-0.2815908640096E-01 -0.2963324427138E+00
-0.3479006361691E-01 -0.2604217390813E+00
-0.3995792899910E-01 -0.2258193344068E+00
-0.4353795124345E-01 -0.1926598017801E+00
-0.4533173363398E-01 -0.1611259365697E+00
-0.4505724591933E-01 -0.1314428860211E+00
-0.4235199979608E-01 -0.1038759564039E+00
-0.3678495428285E-01 -0.7872998859558E-01
-0.2785985989695E-01 -0.5634893565322E-01
-0.1500276837866E-01 -0.3711472284884E-01
 0.2478753050499E-02 -0.2144314291623E-01
 0.6854707417954E+00 -0.3672072193055E+00
 0.6701156743176E+00 -0.3545373139702E+00
 0.6524792521969E+00 -0.3403489466810E+00
 0.6328379458409E+00 -0.3247622240845E+00
 0.6113837056406E+00 -0.3079237330856E+00
 0.5882367096297E+00 -0.2899772397800E+00
 0.5634398599170E+00 -0.2710601254343E+00
 0.5369732720721E+00 -0.2513075900912E+00
 0.5087567435089E+00 -0.2308744292850E+00
 0.4787205881623E+00 -0.2099500691458E+00
 0.4468040327642E+00 -0.1887503293663E+00
 0.4128919796282E+00 -0.1675134263646E+00
 0.3768138208898E+00 -0.1464980130640E+00
 0.3383365753497E+00 -0.1259703857871E+00
 0.2971704760323E+00 -0.1061928960432E+00
 0.2529827766956E+00 -0.8741191570455E-01
 0.2054137097531E+00 -0.6984111599204E-01
 0.1540937187018E+00 -0.5363278495418E-01
 0.9864631832956E-01 -0.3882545899764E-01
 0.8089604356617E-01 -0.6771672798996E+00
 0.7384457142947E-01 -0.6799974450079E+00
 0.6747035003770E-01 -0.6811909693047E+00
 0.6188771562146E-01 -0.6806782331881E+00
 0.5721065305937E-01 -0.6783867926114E+00
 0.5355928271551E-01 -0.6742493273331E+00
 0.5106252507201E-01 -0.6682075352193E+00
 0.4985888351317E-01 -0.6602165751749E+00
 0.5009632508458E-01 -0.6502498909733E+00
 0.5193145707657E-01 -0.6383048030146E+00
 0.5552790300227E-01 -0.6244090903864E+00
 0.6105350684009E-01 -0.6086288078305E+00
 0.6867567192824E-01 -0.5910776123178E+00
 0.7855364753751E-01 -0.5719279415722E+00
 0.9082574273577E-01 -0.5514244749920E+00
 0.1055877292349E+00 -0.5299005276978E+00
 0.1228558271332E+00 -0.5077979274912E+00
 0.1424967334077E+00 -0.4856928190678E+00
 0.1641012046145E+00 -0.4643205450945E+00
 0.7044763711732E+00 -0.3744527429647E+00
 0.7098196673937E+00 -0.3701771452388E+00
 0.7142371522607E+00 -0.3656671087504E+00
 0.7177545690727E+00 -0.3610159522064E+00
 0.7204153560753E+00 -0.3563043704807E+00
 0.7222720600846E+00 -0.3516064088590E+00
 0.7233826895726E+00 -0.3469912591501E+00
 0.7238094156236E+00 -0.3425237415128E+00
 0.7236179362512E+00 -0.3382641548578E+00
 0.7228769573659E+00 -0.3342678380599E+00
 0.7216575616913E+00 -0.3305846368391E+00
 0.7200324282973E+00 -0.3272584094610E+00
 0.7180749555418E+00 -0.3243266571278E+00
 0.7158583815332E+00 -0.3218203170120E+00
 0.7134550086646E+00 -0.3197637030449E+00
 0.7109356641570E+00 -0.3181745378338E+00
 0.7083695020155E+00 -0.3170639234472E+00
 0.7058249648079E+00 -0.3164363038368E+00
 0.7033711434678E+00 -0.3162879723832E+00
 0.1148340952908E-03  0.1822765575400E-03
 0.2747187434699E-03  0.3519577664491E-03
 0.4770278807201E-03  0.4994632500379E-03
 0.7282138416623E-03  0.6321146173116E-03
 0.1026769444648E-02  0.7496984669632E-03
 0.1371518101070E-02  0.8521496412660E-03
 0.1760959114827E-02  0.9390433289672E-03
 0.2193619266257E-02  0.1009856175135E-02
 0.2668051050987E-02  0.1063980735535E-02
 0.3182851047364E-02  0.1100738793123E-02
 0.3736655946731E-02  0.1119375731588E-02
 0.4328131003648E-02  0.1119047663487E-02
 0.4955971358934E-02  0.1098801627242E-02
 0.5618890723026E-02  0.1057547411483E-02
 0.6315566575134E-02  0.9940238364710E-03
 0.7044738285763E-02  0.9067360602606E-03
 0.7805099411873E-02  0.7938796953991E-03
 0.8595353446447E-02  0.6531878901584E-03
 0.9414204907378E-02  0.4816680461620E-03
 0.1025986530645E-01  0.2764336167525E-03
 0.1112901714118E-01  0.3927899926771E-04
 0.1201686547376E-01 -0.2264200883900E-03
 0.1291785731306E-01 -0.5186172465333E-03
 0.1382615984681E-01 -0.8369388474826E-03
 0.1473578269223E-01 -0.1182218169432E-02
 0.1564047272611E-01 -0.1555998194004E-02
 0.1653351719031E-01 -0.1960216391860E-02
 0.1740753087012E-01 -0.2397029463255E-02
 0.1825414099372E-01 -0.2868651990390E-02
 0.1906377130298E-01 -0.3377220469620E-02
 0.1982625105768E-01 -0.3925602205762E-02
 0.2053143663269E-01 -0.4518559793328E-02
 0.2116791244653E-01 -0.5162430259868E-02
 0.2172174956883E-01 -0.5865990407434E-02