<VTKFile type="UnstructuredGrid" version="1,0" byte_order="LittleEndian">
<UnstructuredGrid>
<Piece NumberOfPoints="5802" NumberOfCells="5680">
<Points>
<DataArray type="Float64" NumberOfComponents="3" format="ascii">
-0.1100000000000E+01 -0.4731587125634E+01  0.0000000000000E+00
 0.0000000000000E+00 -0.4731587125634E+01  0.0000000000000E+00
 0.1100000000000E+01 -0.4731587125634E+01  0.0000000000000E+00
-0.1191315091097E+01 -0.1825930012610E+01  0.0000000000000E+00
-0.5956575398395E+00 -0.1755172846926E+01  0.0000000000000E+00
 0.5956575512579E+00 -0.1755172847830E+01  0.0000000000000E+00
 0.1191315091097E+01 -0.1825930012610E+01  0.0000000000000E+00
-0.1487255332335E+01  0.3711246317436E+00  0.0000000000000E+00
 0.1487255329206E+01  0.3711246337271E+00  0.0000000000000E+00
-0.6187500000000E+00 -0.4973806884503E+00  0.0000000000000E+00
 0.6187500000000E+00 -0.4973806884503E+00  0.0000000000000E+00
-0.1072500000000E+01 -0.4731587125634E+01  0.0000000000000E+00
-0.1045000000000E+01 -0.4731587125634E+01  0.0000000000000E+00
-0.1017500000000E+01 -0.4731587125634E+01  0.0000000000000E+00
-0.9900000000000E+00 -0.4731587125634E+01  0.0000000000000E+00
-0.9625000000000E+00 -0.4731587125634E+01  0.0000000000000E+00
-0.9350000000000E+00 -0.4731587125634E+01  0.0000000000000E+00
-0.9075000000000E+00 -0.4731587125634E+01  0.0000000000000E+00
-0.8800000000000E+00 -0.4731587125634E+01  0.0000000000000E+00
-0.8525000000000E+00 -0.4731587125634E+01  0.0000000000000E+00
-0.8250000000000E+00 -0.4731587125634E+01  0.0000000000000E+00
-0.7975000000000E+00 -0.4731587125634E+01  0.0000000000000E+00
-0.7700000000000E+00 -0.4731587125634E+01  0.0000000000000E+00
-0.7425000000000E+00 -0.4731587125634E+01  0.0000000000000E+00
-0.7150000000000E+00 -0.4731587125634E+01  0.0000000000000E+00
-0.6875000000000E+00 -0.4731587125634E+01  0.0000000000000E+00
-0.6600000000000E+00 -0.4731587125634E+01  0.0000000000000E+00
-0.6325000000000E+00 -0.4731587125634E+01  0.0000000000000E+00
-0.6050000000000E+00 -0.4731587125634E+01  0.0000000000000E+00
-0.5775000000000E+00 -0.4731587125634E+01  0.0000000000000E+00
-0.5500000000000E+00 -0.4731587125634E+01  0.0000000000000E+00
-0.5225000000000E+00 -0.4731587125634E+01  0.0000000000000E+00
-0.4950000000000E+00 -0.4731587125634E+01  0.0000000000000E+00
-0.4675000000000E+00 -0.4731587125634E+01  0.0000000000000E+00
-0.4400000000000E+00 -0.4731587125634E+01  0.0000000000000E+00
-0.4125000000000E+00 -0.4731587125634E+01  0.0000000000000E+00
-0.3850000000000E+00 -0.4731587125634E+01  0.0000000000000E+00
-0.3575000000000E+00 -0.4731587125634E+01  0.0000000000000E+00
-0.3300000000000E+00 -0.4731587125634E+01  0.0000000000000E+00
-0.3025000000000E+00 -0.4731587125634E+01  0.0000000000000E+00
-0.2750000000000E+00 -0.4731587125634E+01  0.0000000000000E+00
-0.2475000000000E+00 -0.4731587125634E+01  0.0000000000000E+00
-0.2200000000000E+00 -0.4731587125634E+01  0.0000000000000E+00
-0.1925000000000E+00 -0.4731587125634E+01  0.0000000000000E+00
-0.1650000000000E+00 -0.4731587125634E+01  0.0000000000000E+00
-0.1375000000000E+00 -0.4731587125634E+01  0.0000000000000E+00
-0.1100000000000E+00 -0.4731587125634E+01  0.0000000000000E+00
-0.8250000000000E-01 -0.4731587125634E+01  0.0000000000000E+00
-0.5500000000000E-01 -0.4731587125634E+01  0.0000000000000E+00
-0.2750000000000E-01 -0.4731587125634E+01  0.0000000000000E+00
 0.2750000000000E-01 -0.4731587125634E+01  0.0000000000000E+00
 0.5500000000000E-01 -0.4731587125634E+01  0.0000000000000E+00
 0.8250000000000E-01 -0.4731587125634E+01  0.0000000000000E+00
 0.1100000000000E+00 -0.4731587125634E+01  0.0000000000000E+00
 0.1375000000000E+00 -0.4731587125634E+01  0.0000000000000E+00
 0.1650000000000E+00 -0.4731587125634E+01  0.0000000000000E+00
 0.1925000000000E+00 -0.4731587125634E+01  0.0000000000000E+00
 0.2200000000000E+00 -0.4731587125634E+01  0.0000000000000E+00
 0.2475000000000E+00 -0.4731587125634E+01  0.0000000000000E+00
 0.2750000000000E+00 -0.4731587125634E+01  0.0000000000000E+00
 0.3025000000000E+00 -0.4731587125634E+01  0.0000000000000E+00
 0.3300000000000E+00 -0.4731587125634E+01  0.0000000000000E+00
 0.3575000000000E+00 -0.4731587125634E+01  0.0000000000000E+00
 0.3850000000000E+00 -0.4731587125634E+01  0.0000000000000E+00
 0.4125000000000E+00 -0.4731587125634E+01  0.0000000000000E+00
 0.4400000000000E+00 -0.4731587125634E+01  0.0000000000000E+00
 0.4675000000000E+00 -0.4731587125634E+01  0.0000000000000E+00
 0.4950000000000E+00 -0.4731587125634E+01  0.0000000000000E+00
 0.5225000000000E+00 -0.4731587125634E+01  0.0000000000000E+00
 0.5500000000000E+00 -0.4731587125634E+01  0.0000000000000E+00
 0.5775000000000E+00 -0.4731587125634E+01  0.0000000000000E+00
 0.6050000000000E+00 -0.4731587125634E+01  0.0000000000000E+00
 0.6325000000000E+00 -0.4731587125634E+01  0.0000000000000E+00
 0.6600000000000E+00 -0.4731587125634E+01  0.0000000000000E+00
 0.6875000000000E+00 -0.4731587125634E+01  0.0000000000000E+00
 0.7150000000000E+00 -0.4731587125634E+01  0.0000000000000E+00
 0.7425000000000E+00 -0.4731587125634E+01  0.0000000000000E+00
 0.7700000000000E+00 -0.4731587125634E+01  0.0000000000000E+00
 0.7975000000000E+00 -0.4731587125634E+01  0.0000000000000E+00
 0.8250000000000E+00 -0.4731587125634E+01  0.0000000000000E+00
 0.8525000000000E+00 -0.4731587125634E+01  0.0000000000000E+00
 0.8800000000000E+00 -0.4731587125634E+01  0.0000000000000E+00
 0.9075000000000E+00 -0.4731587125634E+01  0.0000000000000E+00
 0.9350000000000E+00 -0.4731587125634E+01  0.0000000000000E+00
 0.9625000000000E+00 -0.4731587125634E+01  0.0000000000000E+00
 0.9900000000000E+00 -0.4731587125634E+01  0.0000000000000E+00
 0.1017500000000E+01 -0.4731587125634E+01  0.0000000000000E+00
 0.1045000000000E+01 -0.4731587125634E+01  0.0000000000000E+00
 0.1072500000000E+01 -0.4731587125634E+01  0.0000000000000E+00
-0.1161675590434E+01 -0.1821293974842E+01  0.0000000000000E+00
-0.1132018469080E+01 -0.1816772081031E+01  0.0000000000000E+00
-0.1102344135527E+01 -0.1812364599475E+01  0.0000000000000E+00
-0.1072653001422E+01 -0.1808071792594E+01  0.0000000000000E+00
-0.1042945459471E+01 -0.1803893913795E+01  0.0000000000000E+00
-0.1013221952450E+01 -0.1799831217138E+01  0.0000000000000E+00
-0.9834829017084E+00 -0.1795883946982E+01  0.0000000000000E+00
-0.9537287316532E+00 -0.1792052341512E+01  0.0000000000000E+00
-0.9239598612408E+00 -0.1788336631619E+01  0.0000000000000E+00
-0.8941767210493E+00 -0.1784737043031E+01  0.0000000000000E+00
-0.8643797539566E+00 -0.1781253796152E+01  0.0000000000000E+00
-0.8345693957871E+00 -0.1777887103664E+01  0.0000000000000E+00
-0.8047460850418E+00 -0.1774637171701E+01  0.0000000000000E+00
-0.7749102599775E+00 -0.1771504199483E+01  0.0000000000000E+00
-0.7450623578572E+00 -0.1768488379244E+01  0.0000000000000E+00
-0.7152028352234E+00 -0.1765589898169E+01  0.0000000000000E+00
-0.6853321404180E+00 -0.1762808935500E+01  0.0000000000000E+00
-0.6554507240472E+00 -0.1760145663610E+01  0.0000000000000E+00
-0.6255590388957E+00 -0.1757600247935E+01  0.0000000000000E+00
-0.5659320403842E+00 -0.1752877555980E+01  0.0000000000000E+00
-0.5361977827764E+00 -0.1750699115345E+01  0.0000000000000E+00
-0.5064551822954E+00 -0.1748637656849E+01  0.0000000000000E+00
-0.4767046834532E+00 -0.1746693307634E+01  0.0000000000000E+00
-0.4469467825907E+00 -0.1744866190914E+01  0.0000000000000E+00
-0.4171818756954E+00 -0.1743156416506E+01  0.0000000000000E+00
-0.3874104734057E+00 -0.1741564093885E+01  0.0000000000000E+00
-0.3576330176963E+00 -0.1740089321191E+01  0.0000000000000E+00
-0.3278499563594E+00 -0.1738732189839E+01  0.0000000000000E+00
-0.2980617833702E+00 -0.1737492785992E+01  0.0000000000000E+00
-0.2682689204519E+00 -0.1736371185422E+01  0.0000000000000E+00
-0.2384718656336E+00 -0.1735367459648E+01  0.0000000000000E+00
-0.2086710716336E+00 -0.1734481671049E+01  0.0000000000000E+00
-0.1788669979735E+00 -0.1733713874997E+01  0.0000000000000E+00
-0.1490601279746E+00 -0.1733064120054E+01  0.0000000000000E+00
-0.1192509059245E+00 -0.1732532446511E+01  0.0000000000000E+00
-0.8943981808141E-01 -0.1732118888112E+01  0.0000000000000E+00
-0.5962732433722E-01 -0.1731823470688E+01  0.0000000000000E+00
-0.2981389296327E-01 -0.1731646212812E+01  0.0000000000000E+00
 0.5727055524263E-08 -0.1731587125634E+01  0.0000000000000E+00
 0.2981390441730E-01 -0.1731646212857E+01  0.0000000000000E+00
 0.5962733579097E-01 -0.1731823470779E+01  0.0000000000000E+00
 0.8943982953471E-01 -0.1732118888248E+01  0.0000000000000E+00
 0.1192509173772E+00 -0.1732532446692E+01  0.0000000000000E+00
 0.1490601394265E+00 -0.1733064120281E+01  0.0000000000000E+00
 0.1788670094244E+00 -0.1733713875269E+01  0.0000000000000E+00
 0.2086710830833E+00 -0.1734481671367E+01  0.0000000000000E+00
 0.2384718770819E+00 -0.1735367460011E+01  0.0000000000000E+00
 0.2682689318987E+00 -0.1736371185830E+01  0.0000000000000E+00
 0.2980617948153E+00 -0.1737492786445E+01  0.0000000000000E+00
 0.3278499678026E+00 -0.1738732190338E+01  0.0000000000000E+00
 0.3576330291375E+00 -0.1740089321735E+01  0.0000000000000E+00
 0.3874104848446E+00 -0.1741564094474E+01  0.0000000000000E+00
 0.4171818871319E+00 -0.1743156417141E+01  0.0000000000000E+00
 0.4469467940246E+00 -0.1744866191594E+01  0.0000000000000E+00
 0.4767046948843E+00 -0.1746693308359E+01  0.0000000000000E+00
 0.5064551937236E+00 -0.1748637657619E+01  0.0000000000000E+00
 0.5361977942015E+00 -0.1750699116160E+01  0.0000000000000E+00
 0.5659320518060E+00 -0.1752877556840E+01  0.0000000000000E+00
 0.6255590497397E+00 -0.1757600248837E+01  0.0000000000000E+00
 0.6554507343169E+00 -0.1760145664505E+01  0.0000000000000E+00
 0.6853321501138E+00 -0.1762808936384E+01  0.0000000000000E+00
 0.7152028443456E+00 -0.1765589899036E+01  0.0000000000000E+00
 0.7450623664059E+00 -0.1768488380091E+01  0.0000000000000E+00
 0.7749102679531E+00 -0.1771504200305E+01  0.0000000000000E+00
 0.8047460924447E+00 -0.1774637172493E+01  0.0000000000000E+00
 0.8345694026177E+00 -0.1777887104422E+01  0.0000000000000E+00
[...]
<PointData Vectors="'U'">
<DataArray type="Float64" Name="U" NumberOfComponents="2" ComponentName0="U1" ComponentName1="U2" format="ascii">
 0.2878071603157E-37  0.7276675674795E-37
-0.2166146530229E-37 -0.5527829263720E-37
 0.4816650842373E-37 -0.1214256741819E-36
-0.1287421367434E-01 -0.3133933176629E-01
-0.5481703814869E-02 -0.1832959579684E-01
 0.5481703932045E-02 -0.1832959585439E-01
 0.1287421368753E-01 -0.3133933177748E-01
-0.2720680809648E+00 -0.3140004243907E+00
 0.2720680805704E+00 -0.3140004255014E+00
-0.3159100202259E+00 -0.4640541523365E+00
 0.3159100204041E+00 -0.4640541524432E+00
-0.5557525606596E-37 -0.5526240736052E-37
-0.5398500753992E-37 -0.5337788556339E-37
-0.5351940795609E-37 -0.5034139356915E-37
-0.5303758667621E-37 -0.4770149124323E-37
-0.5244070010329E-37 -0.4559881583194E-37
-0.5175567936826E-37 -0.4396091686194E-37
-0.5101301402876E-37 -0.4269749620864E-37
-0.5023335310797E-37 -0.4173320804163E-37
-0.4942941417314E-37 -0.4100982132884E-37
-0.4860888990936E-37 -0.4048296685190E-37
-0.4777646931903E-37 -0.4011868223050E-37
-0.4693506493978E-37 -0.3989068828047E-37
-0.4608653105262E-37 -0.3977839563811E-37
-0.4523208139434E-37 -0.3976547038388E-37
-0.4437253367525E-37 -0.3983880120640E-37
-0.4350845440712E-37 -0.3998775007107E-37
-0.4264024569351E-37 -0.4020359875468E-37
-0.4176819810151E-37 -0.4047913822241E-37
-0.4089252297884E-37 -0.4080835782704E-37
-0.4001343341668E-37 -0.4118624604733E-37
-0.3913135075485E-37 -0.4161756527783E-37
-0.3824597686908E-37 -0.4208916769800E-37
-0.3735728315991E-37 -0.4259797830068E-37
-0.3646528242456E-37 -0.4314132541758E-37
-0.3556996190444E-37 -0.4371689686195E-37
-0.3467128356051E-37 -0.4432267656796E-37
-0.3376918521584E-37 -0.4495690719896E-37
-0.3286358119114E-37 -0.4561804326016E-37
-0.3195436293157E-37 -0.4630472271863E-37
-0.3104139948020E-37 -0.4701574234556E-37
-0.3012453778139E-37 -0.4775003140689E-37
-0.2920360299711E-37 -0.4850663979874E-37
-0.2827839872413E-37 -0.4928471866917E-37
-0.2734870717344E-37 -0.5008351061471E-37
-0.2641428933268E-37 -0.5090234059528E-37
-0.2547488508596E-37 -0.5174060612466E-37
-0.2453021326625E-37 -0.5259777414963E-37
-0.2357997170623E-37 -0.5347337434586E-37
-0.2262383717839E-37 -0.5436699731503E-37
-0.2069249035186E-37 -0.5620696820619E-37
-0.1971652496070E-37 -0.5715279096096E-37
-0.1873315970561E-37 -0.5811558873000E-37
-0.1774196254522E-37 -0.5909525300785E-37
-0.1674247809224E-37 -0.6009174293169E-37
-0.1573422663539E-37 -0.6110509146943E-37
-0.1471670301792E-37 -0.6213541058271E-37
-0.1368937506814E-37 -0.6318290139154E-37
-0.1265168185165E-37 -0.6424786278171E-37
-0.1160303140965E-37 -0.6533070392280E-37
-0.1054279797342E-37 -0.6643195960758E-37
-0.9470318817280E-38 -0.6755230532636E-37
-0.8384890042484E-38 -0.6869258059896E-37
-0.7285761925475E-38 -0.6985381175517E-37
-0.6172132989952E-38 -0.7103724276800E-37
-0.5043142816961E-38 -0.7224437260695E-37
-0.3897863766395E-38 -0.7347699756320E-37
-0.2735290223833E-38 -0.7473726917216E-37
-0.1554326611503E-38 -0.7602776148652E-37
-0.3537115603786E-39 -0.7735152158792E-37
 0.8675731102321E-39 -0.7871107460170E-37
 0.2111370546981E-38 -0.8011255848313E-37
 0.3379213482795E-38 -0.8156130016678E-37
 0.4672973232510E-38 -0.8306387716496E-37
 0.5994786198402E-38 -0.8462837500682E-37
 0.7347113787473E-38 -0.8626482811528E-37
 0.8732821094348E-38 -0.8798583541180E-37
 0.1015527962695E-37 -0.8980743696355E-37
 0.1161850197012E-37 -0.9175039371032E-37
 0.1312731681712E-37 -0.9384210982910E-37
 0.1468758913223E-37 -0.9611961945227E-37
 0.1630646784727E-37 -0.9863441634974E-37
 0.1799255569197E-37 -0.1014606540219E-36
 0.1975557453402E-37 -0.1047099458368E-36
 0.2160389617432E-37 -0.1085602904788E-36
 0.2353345949981E-37 -0.1133190525821E-36
 0.2547946709400E-37 -0.1195827220568E-36
 0.2708114741668E-37 -0.1287428614011E-36
 0.2626736462653E-37 -0.1451823546702E-36
-0.1198686684855E-01 -0.2834777120211E-01
-0.1136746951526E-01 -0.2653375205584E-01
-0.1085022485611E-01 -0.2524463941796E-01
-0.1040275508489E-01 -0.2424235741706E-01
-0.1000246313984E-01 -0.2342272051919E-01
-0.9634552787617E-02 -0.2273082926999E-01
-0.9289260102772E-02 -0.2213445538195E-01
-0.8960159596373E-02 -0.2161302399032E-01
-0.8642968025939E-02 -0.2115249798198E-01
-0.8334768526599E-02 -0.2074277477282E-01
-0.8033521226107E-02 -0.2037626581725E-01
-0.7737758868436E-02 -0.2004707308492E-01
-0.7446398047024E-02 -0.1975048591320E-01
-0.7158621386150E-02 -0.1948265828955E-01
-0.6873803975923E-02 -0.1924039292076E-01
-0.6591468577946E-02 -0.1902099078579E-01
-0.6311260513375E-02 -0.1882214030977E-01
-0.6032940149589E-02 -0.1864182807368E-01
-0.5756393506014E-02 -0.1847824340865E-01
-0.5209656783306E-02 -0.1819625887503E-01
-0.4936961142529E-02 -0.1807531262483E-01
-0.4664050758629E-02 -0.1796571412683E-01
-0.4391008187132E-02 -0.1786660355272E-01
-0.4117854257453E-02 -0.1777715491615E-01
-0.3844576331722E-02 -0.1769661309739E-01
-0.3571152260709E-02 -0.1762429461964E-01
-0.3297558046342E-02 -0.1755958387355E-01
-0.3023773363133E-02 -0.1750192844990E-01
-0.2749784165723E-02 -0.1745083448503E-01
-0.2475582476788E-02 -0.1740586225758E-01
-0.2201167895895E-02 -0.1736662286656E-01
-0.1926546206796E-02 -0.1733277503325E-01
-0.1651729354381E-02 -0.1730402269479E-01
-0.1376734967635E-02 -0.1728011295971E-01
-0.1101585068864E-02 -0.1726083438217E-01
-0.8263060677985E-03 -0.1724601568848E-01
-0.5509273492499E-03 -0.1723552468168E-01
-0.2754807991257E-03 -0.1722926748080E-01
 0.5828570959210E-10 -0.1722718797109E-01
 0.2754809156932E-03 -0.1722926748257E-01
 0.5509274658057E-03 -0.1723552468522E-01
 0.8263061843353E-03 -0.1724601569383E-01
 0.1101585185375E-02 -0.1726083438937E-01
 0.1376735084116E-02 -0.1728011296883E-01
 0.1651729470827E-02 -0.1730402270589E-01
 0.1926546323207E-02 -0.1733277504643E-01
 0.2201168012269E-02 -0.1736662288192E-01
 0.2475582593129E-02 -0.1740586227524E-01
 0.2749784282037E-02 -0.1745083450514E-01
 0.3023773479428E-02 -0.1750192847261E-01
 0.3297558162632E-02 -0.1755958389906E-01
 0.3571152377010E-02 -0.1762429464813E-01
 0.3844576448055E-02 -0.1769661312909E-01
 0.4117854373843E-02 -0.1777715495132E-01
 0.4391008303610E-02 -0.1786660359165E-01
 0.4664050875228E-02 -0.1796571416982E-01
 0.4936961259286E-02 -0.1807531267225E-01
 0.5209656900257E-02 -0.1819625892727E-01
 0.5756393618252E-02 -0.1847824346900E-01
 0.6032940256902E-02 -0.1864182813676E-01
 0.6311260615794E-02 -0.1882214037549E-01
 0.6591468675510E-02 -0.1902099085405E-01
 0.6873804068670E-02 -0.1924039299144E-01
 0.7158621474121E-02 -0.1948265836248E-01
 0.7446398130256E-02 -0.1975048598820E-01
 0.7737758946968E-02 -0.2004707316177E-01
 0.8033521299977E-02 -0.2037626589569E-01
 0.8334768595844E-02 -0.2074277485252E-01
 0.8642968090602E-02 -0.2115249806256E-01
 0.8960159656500E-02 -0.2161302407133E-01
 0.9289260158414E-02 -0.2213445546286E-01
 0.9634552838822E-02 -0.2273082935016E-01
 0.1000246318662E-01 -0.2342272059784E-01
 0.1040275512716E-01 -0.2424235749320E-01
 0.1085022489352E-01 -0.2524463949014E-01
 0.1136746954691E-01 -0.2653375212155E-01
 0.1198686687329E-01 -0.2834777125485E-01
-0.1516926636527E+00 -0.1161646847419E+00
-0.2292742191181E+00 -0.1801908390679E+00
-0.2896994138014E+00 -0.2246657021087E+00
-0.3377616328764E+00 -0.2594382337383E+00
-0.3767324555983E+00 -0.2873075762265E+00
-0.4085214582558E+00 -0.3086938884515E+00
-0.4340270117484E+00 -0.3222984920501E+00
-0.4534034173294E+00 -0.3290503994375E+00
-0.4667395763154E+00 -0.3306396672483E+00
-0.4741384022063E+00 -0.3283046660934E+00
-0.4756455689299E+00 -0.3229573442256E+00
-0.4712758157758E+00 -0.3154082718072E+00
-0.4610732267679E+00 -0.3064641002726E+00
-0.4451235113756E+00 -0.2969923356575E+00
-0.4236337281547E+00 -0.2879983050717E+00
-0.3970502961077E+00 -0.2805419514533E+00
-0.3658842049644E+00 -0.2754022974891E+00
-0.3317416305273E+00 -0.2772213303200E+00
-0.2988953782588E+00 -0.2902217576778E+00
-0.2598349674765E+00 -0.3341639348773E+00
-0.2496398190497E+00 -0.3565410133965E+00
-0.2411313672230E+00 -0.3811512709174E+00
-0.2347122339291E+00 -0.4084119129710E+00
-0.2307604217631E+00 -0.4389429465620E+00
-0.2290917038810E+00 -0.4737624599801E+00
-0.2292821448980E+00 -0.5147051898173E+00
-0.2296467481403E+00 -0.5639347011810E+00
-0.2285687643292E+00 -0.6199975824535E+00
-0.2250367346597E+00 -0.6789706736403E+00
-0.2176515908550E+00 -0.7385695018022E+00
-0.2058655581821E+00 -0.7968534371228E+00
-0.1898978928822E+00 -0.8519387785710E+00
-0.1701844762440E+00 -0.9022455971662E+00
-0.1471926723827E+00 -0.9465307010425E+00
-0.1213894365164E+00 -0.9838466699170E+00
-0.9324910790527E-01 -0.1013492211606E+01
-0.6326786384397E-01 -0.1034971221975E+01
-0.3198232921660E-01 -0.1047962575902E+01
-0.6135703056742E-09 -0.1052302401967E+01
 0.3198232800706E-01 -0.1047962576342E+01
 0.6326786268350E-01 -0.1034971222852E+01
 0.9324910682118E-01 -0.1013492212907E+01
 0.1213894355346E+00 -0.9838466716207E+00
 0.1471926715241E+00 -0.9465307031211E+00
 0.1701844755325E+00 -0.9022455995754E+00
 0.1898978923378E+00 -0.8519387812593E+00
 0.2058655578289E+00 -0.7968534400117E+00
 0.2176515907098E+00 -0.7385695048070E+00
 0.2250367347207E+00 -0.6789706766615E+00
 0.2285687645437E+00 -0.6199975853920E+00
 0.2296467484485E+00 -0.5639347038875E+00
 0.2292821452484E+00 -0.5147051921313E+00
 0.2290917041835E+00 -0.4737624619343E+00
 0.2307604219576E+00 -0.4389429482876E+00
 0.2347122340135E+00 -0.4084119145312E+00
 0.2411313671949E+00 -0.3811512723486E+00
 0.2496398189169E+00 -0.3565410147197E+00
 0.2598349672307E+00 -0.3341639361008E+00
 0.2988953776627E+00 -0.2902217584633E+00
 0.3317416298490E+00 -0.2772213307374E+00
 0.3658842043595E+00 -0.2754022976331E+00
 0.3970502956434E+00 -0.2805419515127E+00
 0.4236337278330E+00 -0.2879983050963E+00
 0.4451235111927E+00 -0.2969923356702E+00
 0.4610732267145E+00 -0.3064641002959E+00
 0.4712758158374E+00 -0.3154082718558E+00
 0.4756455690908E+00 -0.3229573443093E+00
 0.4741384024505E+00 -0.3283046662191E+00
 0.4667395766271E+00 -0.3306396674208E+00
 0.4534034176923E+00 -0.3290503996613E+00
 0.4340270121457E+00 -0.3222984923308E+00
 0.4085214586658E+00 -0.3086938887882E+00
 0.3767324560017E+00 -0.2873075765865E+00
 0.3377616332623E+00 -0.2594382340809E+00
 0.2896994141597E+00 -0.2246657024148E+00
 0.2292742194295E+00 -0.1801908393305E+00
 0.1516926638759E+00 -0.1161646849527E+00
-0.3989407998697E-03 -0.7008750014541E-03
-0.6480601602524E-03 -0.1203752790894E-02
-0.8408336030994E-03 -0.1673168153720E-02
-0.9932856213082E-03 -0.2123193597533E-02
-0.1116302698917E-02 -0.2563128781432E-02
-0.1215543983082E-02 -0.2997809228153E-02
-0.1295184574986E-02 -0.3430172190375E-02
-0.1358207466516E-02 -0.3862199764559E-02
-0.1406934361918E-02 -0.4295312648336E-02
-0.1443213862631E-02 -0.4730603853429E-02
-0.1468566277711E-02 -0.5168970294471E-02
-0.1484271964801E-02 -0.5611198778441E-02
-0.1491436491155E-02 -0.6058026854387E-02
-0.1491040012807E-02 -0.6510187187414E-02
-0.1483978102475E-02 -0.6968443446784E-02
-0.1471097580752E-02 -0.7433622592898E-02
-0.1453229607199E-02 -0.7906649411334E-02
-0.1431223155885E-02 -0.8388553814995E-02
-0.1405975971447E-02 -0.8880544432542E-02
-0.1378470320954E-02 -0.9384006912797E-02
-0.1349807623539E-02 -0.9900579309511E-02
-0.1321244193293E-02 -0.1043223663827E-01
-0.1294240763530E-02 -0.1098151226630E-01
-0.1270763565922E-02 -0.1155194292678E-01
-0.1253808503772E-02 -0.1214748273723E-01
-0.1247298062446E-02 -0.1277142817949E-01
-0.1255759887695E-02 -0.1342635662878E-01
-0.1284204955688E-02 -0.1411455665426E-01
-0.1338216559825E-02 -0.1483852368009E-01
-0.1424199073881E-02 -0.1560135426479E-01
-0.1549740858862E-02 -0.1640702088517E-01
-0.1724127883290E-02 -0.1726053942619E-01
-0.1958864972906E-02 -0.1816762484677E-01
-0.2267803963111E-02 -0.1913478718193E-01
-0.2668285436669E-02 -0.2017190727253E-01
-0.3183651603407E-02 -0.2129534120580E-01
-0.3850689433398E-02 -0.2253219801682E-01
-0.4720119526704E-02 -0.2392904269691E-01
-0.5938254208449E-02 -0.2557498936876E-01
-0.7535926327504E-02 -0.2778775398299E-01
 0.7535926335504E-02 -0.2778775398922E-01
 0.5938254218567E-02 -0.2557498937496E-01
 0.4720119536244E-02 -0.2392904270362E-01
 0.3850689442560E-02 -0.2253219802341E-01
 0.3183651612144E-02 -0.2129534121228E-01
 0.2668285444983E-02 -0.2017190727886E-01
 0.2267803971004E-02 -0.1913478718811E-01
 0.1958864980383E-02 -0.1816762485277E-01
 0.1724127890358E-02 -0.1726053943200E-01
 0.1549740865541E-02 -0.1640702089079E-01
 0.1424199080188E-02 -0.1560135427022E-01
 0.1338216565772E-02 -0.1483852368534E-01
 0.1284204961286E-02 -0.1411455665933E-01
 0.1255759892955E-02 -0.1342635663368E-01
 0.1247298067378E-02 -0.1277142818423E-01
 0.1253808508387E-02 -0.1214748274180E-01
 0.1270763570227E-02 -0.1155194293119E-01
 0.1294240767537E-02 -0.1098151227054E-01
 0.1321244197012E-02 -0.1043223664235E-01
 0.1349807626980E-02 -0.9900579313423E-02
 0.1378470324128E-02 -0.9384006916540E-02
 0.1405975974366E-02 -0.8880544436115E-02
 0.1431223158558E-02 -0.8388553818397E-02
 0.1453229609639E-02 -0.7906649414562E-02
 0.1471097582970E-02 -0.7433622595952E-02
 0.1483978104482E-02 -0.6968443449662E-02
 0.1491040014614E-02 -0.6510187190115E-02
 0.1491436492773E-02 -0.6058026856909E-02
 0.1484271966242E-02 -0.5611198780782E-02
 0.1468566278987E-02 -0.5168970296631E-02
 0.1443213863752E-02 -0.4730603855406E-02
 0.1406934362896E-02 -0.4295312650130E-02
 0.1358207467362E-02 -0.3862199766168E-02
 0.1295184575709E-02 -0.3430172191797E-02
 0.1215543983693E-02 -0.2997809229389E-02
 0.1116302699424E-02 -0.2563128782480E-02
 0.9932856217202E-03 -0.2123193598390E-02
 0.8408336034211E-03 -0.1673168154385E-02
 0.6480601604870E-03 -0.1203752791363E-02
 0.3989408000048E-03 -0.7008750017199E-03
-0.3042936767201E+00 -0.4747145877655E+00
-0.2922519618516E+00 -0.4854258441876E+00
-0.2797052855953E+00 -0.4960965664097E+00
-0.2666345852348E+00 -0.5066532125413E+00
-0.2530356512052E+00 -0.5170220540901E+00
-0.2389132729573E+00 -0.5271304594671E+00
-0.2242787710038E+00 -0.5369076457193E+00
-0.2091487451898E+00 -0.5462847088152E+00
-0.1935444449011E+00 -0.5551948910732E+00
-0.1774911413981E+00 -0.5635741031996E+00
-0.1610177016169E+00 -0.5713613260027E+00
-0.1441562342225E+00 -0.5784989620950E+00
-0.1269417974229E+00 -0.5849332966198E+00
-0.1094121435600E+00 -0.5906151587797E+00
-0.9160748166431E-01 -0.5955005855788E+00
-0.7357018778247E-01 -0.5995514193445E+00
-0.5534449975051E-01 -0.6027358007285E+00
-0.3697617337902E-01 -0.6050285652681E+00
-0.1851211514359E-01 -0.6064115416619E+00
 0.8095968340172E-10 -0.6068737558628E+00
 0.1851211530558E-01 -0.6064115416672E+00
 0.3697617354120E-01 -0.6050285652785E+00
 0.5534449991301E-01 -0.6027358007443E+00
 0.7357018794543E-01 -0.5995514193656E+00
 0.9160748182785E-01 -0.5955005856052E+00
 0.1094121437242E+00 -0.5906151588116E+00
 0.1269417975879E+00 -0.5849332966572E+00
 0.1441562343885E+00 -0.5784989621379E+00
 0.1610177017839E+00 -0.5713613260513E+00
 0.1774911415662E+00 -0.5635741032540E+00
 0.1935444450705E+00 -0.5551948911334E+00
 0.2091487453605E+00 -0.5462847088815E+00
 0.2242787711759E+00 -0.5369076457915E+00
 0.2389132731307E+00 -0.5271304595453E+00
 0.2530356513800E+00 -0.5170220541741E+00
 0.2666345854109E+00 -0.5066532126310E+00
 0.2797052857724E+00 -0.4960965665047E+00
 0.2922519620294E+00 -0.4854258442873E+00
 0.3042936768983E+00 -0.4747145878692E+00
-0.3127357966323E+00 -0.4368342990195E+00
-0.3086192905168E+00 -0.4096470715490E+00
-0.3034842241650E+00 -0.3823685881522E+00
-0.2972673734630E+00 -0.3550676940919E+00
-0.2899265763376E+00 -0.3278426455765E+00
-0.2814289257734E+00 -0.3007911573841E+00
-0.2717174844510E+00 -0.2740116606935E+00
-0.2607298048611E+00 -0.2476072695736E+00
-0.2484091225758E+00 -0.2216905887430E+00
-0.2347086047452E+00 -0.1963902534975E+00
-0.2195850778932E+00 -0.1718567278369E+00
-0.2029838515236E+00 -0.1482643286479E+00
-0.1848260689228E+00 -0.1258089986144E+00
-0.1650113511308E+00 -0.1047037265335E+00
-0.1434318366618E+00 -0.8517352644491E-01
-0.1199825169616E+00 -0.6744609550177E-01
-0.9456230375931E-01 -0.5173554336834E-01
-0.6707310131235E-01 -0.3823051022805E-01
-0.3741694033500E-01 -0.2707587126823E-01
 0.3127357967950E+00 -0.4368342991065E+00
 0.3086192906680E+00 -0.4096470716158E+00
 0.3034842243095E+00 -0.3823685881981E+00
 0.2972673736057E+00 -0.3550676941157E+00
 0.2899265764855E+00 -0.3278426455768E+00
 0.2814289259382E+00 -0.3007911573601E+00
 0.2717174846508E+00 -0.2740116606452E+00
 0.2607298051213E+00 -0.2476072695030E+00
 0.2484091229281E+00 -0.2216905886549E+00
 0.2347086052236E+00 -0.1963902534001E+00
 0.2195850785257E+00 -0.1718567277419E+00
 0.2029838523231E+00 -0.1482643285689E+00
 0.1848260698807E+00 -0.1258089985641E+00
 0.1650113522139E+00 -0.1047037265209E+00
 0.1434318378141E+00 -0.8517352647304E-01
 0.1199825181069E+00 -0.6744609556754E-01
 0.9456230480543E-01 -0.5173554346254E-01
 0.6707310215521E-01 -0.3823051033542E-01
 0.3741694086604E-01 -0.2707587136673E-01
-0.3345017053192E+00 -0.4720368802188E+00
-0.3513471681704E+00 -0.4776245586683E+00
-0.3661307278967E+00 -0.4807936178479E+00
-0.3786441451320E+00 -0.4815574371780E+00
-0.3887091028210E+00 -0.4799572196106E+00
-0.3961772207392E+00 -0.4760809128925E+00
-0.4009373972230E+00 -0.4700669250633E+00
-0.4029251095789E+00 -0.4621047984639E+00
-0.4021313628165E+00 -0.4524322725935E+00
-0.3986107086883E+00 -0.4413290810681E+00
-0.3924877079363E+00 -0.4291072955882E+00
-0.3839609949185E+00 -0.4160980490754E+00
-0.3733037919191E+00 -0.4026345457413E+00
-0.3608593815958E+00 -0.3890314765068E+00
-0.3470297458566E+00 -0.3755613986569E+00
-0.3322554724834E+00 -0.3624295233445E+00
-0.3169860906353E+00 -0.3497503767226E+00
-0.3016424713733E+00 -0.3375323424096E+00
-0.2865829393680E+00 -0.3256808787614E+00
 0.3345017054558E+00 -0.4720368804118E+00
 0.3513471682710E+00 -0.4776245589478E+00
 0.3661307279669E+00 -0.4807936182129E+00
 0.3786441451771E+00 -0.4815574376260E+00
 0.3887091028457E+00 -0.4799572201374E+00
 0.3961772207475E+00 -0.4760809134928E+00
 0.4009373972175E+00 -0.4700669257303E+00
 0.4029251095607E+00 -0.4621047991897E+00
 0.4021313627847E+00 -0.4524322733696E+00
 0.3986107086402E+00 -0.4413290818857E+00
 0.3924877078673E+00 -0.4291072964389E+00
 0.3839609948227E+00 -0.4160980499517E+00
 0.3733037917899E+00 -0.4026345466375E+00
 0.3608593814267E+00 -0.3890314774195E+00
 0.3470297456426E+00 -0.3755613995859E+00
 0.3322554722222E+00 -0.3624295242929E+00
 0.3169860903286E+00 -0.3497503776967E+00
 0.3016424710270E+00 -0.3375323434185E+00
 0.2865829389920E+00 -0.3256808798159E+00
-0.3354036170583E-03 -0.5877131777503E-03
-0.6035081788211E-03 -0.1129259489047E-02
-0.7964610549031E-03 -0.1612435662150E-02
-0.9508644768889E-03 -0.2074951117963E-02
-0.1074538421901E-02 -0.2524893313136E-02
-0.1174175532800E-02 -0.2968043110617E-02
-0.1253911875766E-02 -0.3407706947856E-02
-0.1316848039509E-02 -0.3846132600712E-02
-0.1365342863922E-02 -0.4284921478034E-02
-0.1401276485990E-02 -0.4725296653075E-02
-0.1426186911294E-02 -0.5168250906247E-02
-0.1441365538577E-02 -0.5614642490995E-02
-0.1447923591703E-02 -0.6065261860887E-02
-0.1446843034953E-02 -0.6520879562002E-02
-0.1439018212821E-02 -0.6982284187021E-02
-0.1425292256068E-02 -0.7450315779781E-02
-0.1406490542977E-02 -0.7925900783907E-02
-0.1383454315773E-02 -0.8410059233400E-02
-0.1357071534482E-02 -0.8903977878952E-02
-0.1328312075450E-02 -0.9409007250984E-02
-0.1298260909581E-02 -0.9926734556725E-02
-0.1268149076298E-02 -0.1045906549712E-01
-0.1239406510117E-02 -0.1100836275295E-01
-0.1213994459185E-02 -0.1157748317796E-01
-0.1194961546314E-02 -0.1216944119459E-01
-0.1186326618165E-02 -0.1278697356183E-01
-0.1192715049702E-02 -0.1343243693591E-01
-0.1219218511770E-02 -0.1410801276936E-01
-0.1271486487686E-02 -0.1481600152619E-01
-0.1355991530497E-02 -0.1555907609542E-01
-0.1480417219297E-02 -0.1634047128950E-01
-0.1654203255717E-02 -0.1716406898044E-01
-0.1889005167765E-02 -0.1803454176447E-01
-0.2198781375779E-02 -0.1895758379858E-01