<VTKFile type="UnstructuredGrid" version="1,0" byte_order="LittleEndian">
<UnstructuredGrid>
<Piece NumberOfPoints="5802" NumberOfCells="5680">
<Points>
<DataArray type="Float64" NumberOfComponents="3" format="ascii">
-0.1100000000000E+01 -0.4304044648606E+01  0.0000000000000E+00
 0.0000000000000E+00 -0.4304044648606E+01  0.0000000000000E+00
 0.1100000000000E+01 -0.4304044648606E+01  0.0000000000000E+00
-0.1426338184892E+01 -0.1495137730994E+01  0.0000000000000E+00
-0.7131690856113E+00 -0.1351817918288E+01  0.0000000000000E+00
 0.7131690992823E+00 -0.1351817920119E+01  0.0000000000000E+00
 0.1426338184892E+01 -0.1495137730994E+01  0.0000000000000E+00
-0.1297471036855E+01  0.8924645033579E+00  0.0000000000000E+00
 0.1297471037589E+01  0.8924645030013E+00  0.0000000000000E+00
-0.7500000000000E+00  0.3449934570704E+00  0.0000000000000E+00
 0.7500000000000E+00  0.3449934570704E+00  0.0000000000000E+00
-0.1072500000000E+01 -0.4304044648606E+01  0.0000000000000E+00
-0.1045000000000E+01 -0.4304044648606E+01  0.0000000000000E+00
-0.1017500000000E+01 -0.4304044648606E+01  0.0000000000000E+00
-0.9900000000000E+00 -0.4304044648606E+01  0.0000000000000E+00
-0.9625000000000E+00 -0.4304044648606E+01  0.0000000000000E+00
-0.9350000000000E+00 -0.4304044648606E+01  0.0000000000000E+00
-0.9075000000000E+00 -0.4304044648606E+01  0.0000000000000E+00
-0.8800000000000E+00 -0.4304044648606E+01  0.0000000000000E+00
-0.8525000000000E+00 -0.4304044648606E+01  0.0000000000000E+00
-0.8250000000000E+00 -0.4304044648606E+01  0.0000000000000E+00
-0.7975000000000E+00 -0.4304044648606E+01  0.0000000000000E+00
-0.7700000000000E+00 -0.4304044648606E+01  0.0000000000000E+00
-0.7425000000000E+00 -0.4304044648606E+01  0.0000000000000E+00
-0.7150000000000E+00 -0.4304044648606E+01  0.0000000000000E+00
-0.6875000000000E+00 -0.4304044648606E+01  0.0000000000000E+00
-0.6600000000000E+00 -0.4304044648606E+01  0.0000000000000E+00
-0.6325000000000E+00 -0.4304044648606E+01  0.0000000000000E+00
-0.6050000000000E+00 -0.4304044648606E+01  0.0000000000000E+00
-0.5775000000000E+00 -0.4304044648606E+01  0.0000000000000E+00
-0.5500000000000E+00 -0.4304044648606E+01  0.0000000000000E+00
-0.5225000000000E+00 -0.4304044648606E+01  0.0000000000000E+00
-0.4950000000000E+00 -0.4304044648606E+01  0.0000000000000E+00
-0.4675000000000E+00 -0.4304044648606E+01  0.0000000000000E+00
-0.4400000000000E+00 -0.4304044648606E+01  0.0000000000000E+00
-0.4125000000000E+00 -0.4304044648606E+01  0.0000000000000E+00
-0.3850000000000E+00 -0.4304044648606E+01  0.0000000000000E+00
-0.3575000000000E+00 -0.4304044648606E+01  0.0000000000000E+00
-0.3300000000000E+00 -0.4304044648606E+01  0.0000000000000E+00
-0.3025000000000E+00 -0.4304044648606E+01  0.0000000000000E+00
-0.2750000000000E+00 -0.4304044648606E+01  0.0000000000000E+00
-0.2475000000000E+00 -0.4304044648606E+01  0.0000000000000E+00
-0.2200000000000E+00 -0.4304044648606E+01  0.0000000000000E+00
-0.1925000000000E+00 -0.4304044648606E+01  0.0000000000000E+00
-0.1650000000000E+00 -0.4304044648606E+01  0.0000000000000E+00
-0.1375000000000E+00 -0.4304044648606E+01  0.0000000000000E+00
-0.1100000000000E+00 -0.4304044648606E+01  0.0000000000000E+00
-0.8250000000000E-01 -0.4304044648606E+01  0.0000000000000E+00
-0.5500000000000E-01 -0.4304044648606E+01  0.0000000000000E+00
-0.2750000000000E-01 -0.4304044648606E+01  0.0000000000000E+00
 0.2750000000000E-01 -0.4304044648606E+01  0.0000000000000E+00
 0.5500000000000E-01 -0.4304044648606E+01  0.0000000000000E+00
 0.8250000000000E-01 -0.4304044648606E+01  0.0000000000000E+00
 0.1100000000000E+00 -0.4304044648606E+01  0.0000000000000E+00
 0.1375000000000E+00 -0.4304044648606E+01  0.0000000000000E+00
 0.1650000000000E+00 -0.4304044648606E+01  0.0000000000000E+00
 0.1925000000000E+00 -0.4304044648606E+01  0.0000000000000E+00
 0.2200000000000E+00 -0.4304044648606E+01  0.0000000000000E+00
 0.2475000000000E+00 -0.4304044648606E+01  0.0000000000000E+00
 0.2750000000000E+00 -0.4304044648606E+01  0.0000000000000E+00
 0.3025000000000E+00 -0.4304044648606E+01  0.0000000000000E+00
 0.3300000000000E+00 -0.4304044648606E+01  0.0000000000000E+00
 0.3575000000000E+00 -0.4304044648606E+01  0.0000000000000E+00
 0.3850000000000E+00 -0.4304044648606E+01  0.0000000000000E+00
 0.4125000000000E+00 -0.4304044648606E+01  0.0000000000000E+00
 0.4400000000000E+00 -0.4304044648606E+01  0.0000000000000E+00
 0.4675000000000E+00 -0.4304044648606E+01  0.0000000000000E+00
 0.4950000000000E+00 -0.4304044648606E+01  0.0000000000000E+00
 0.5225000000000E+00 -0.4304044648606E+01  0.0000000000000E+00
 0.5500000000000E+00 -0.4304044648606E+01  0.0000000000000E+00
 0.5775000000000E+00 -0.4304044648606E+01  0.0000000000000E+00
 0.6050000000000E+00 -0.4304044648606E+01  0.0000000000000E+00
 0.6325000000000E+00 -0.4304044648606E+01  0.0000000000000E+00
 0.6600000000000E+00 -0.4304044648606E+01  0.0000000000000E+00
 0.6875000000000E+00 -0.4304044648606E+01  0.0000000000000E+00
 0.7150000000000E+00 -0.4304044648606E+01  0.0000000000000E+00
 0.7425000000000E+00 -0.4304044648606E+01  0.0000000000000E+00
 0.7700000000000E+00 -0.4304044648606E+01  0.0000000000000E+00
 0.7975000000000E+00 -0.4304044648606E+01  0.0000000000000E+00
 0.8250000000000E+00 -0.4304044648606E+01  0.0000000000000E+00
 0.8525000000000E+00 -0.4304044648606E+01  0.0000000000000E+00
 0.8800000000000E+00 -0.4304044648606E+01  0.0000000000000E+00
 0.9075000000000E+00 -0.4304044648606E+01  0.0000000000000E+00
 0.9350000000000E+00 -0.4304044648606E+01  0.0000000000000E+00
 0.9625000000000E+00 -0.4304044648606E+01  0.0000000000000E+00
 0.9900000000000E+00 -0.4304044648606E+01  0.0000000000000E+00
 0.1017500000000E+01 -0.4304044648606E+01  0.0000000000000E+00
 0.1045000000000E+01 -0.4304044648606E+01  0.0000000000000E+00
 0.1072500000000E+01 -0.4304044648606E+01  0.0000000000000E+00
-0.1391152984612E+01 -0.1485826169004E+01  0.0000000000000E+00
-0.1355910848380E+01 -0.1476732672072E+01  0.0000000000000E+00
-0.1320612835817E+01 -0.1467858633912E+01  0.0000000000000E+00
-0.1285259981017E+01 -0.1459205415754E+01  0.0000000000000E+00
-0.1249853511796E+01 -0.1450774398559E+01  0.0000000000000E+00
-0.1214394584761E+01 -0.1442566916018E+01  0.0000000000000E+00
-0.1178884329493E+01 -0.1434584266595E+01  0.0000000000000E+00
-0.1143323993112E+01 -0.1426827745365E+01  0.0000000000000E+00
-0.1107714835036E+01 -0.1419298618073E+01  0.0000000000000E+00
-0.1072058114862E+01 -0.1411998118171E+01  0.0000000000000E+00
-0.1036355114016E+01 -0.1404927450906E+01  0.0000000000000E+00
-0.1000607103274E+01 -0.1398087786375E+01  0.0000000000000E+00
-0.9648154637952E+00 -0.1391480281711E+01  0.0000000000000E+00
-0.9289815514207E+00 -0.1385106053576E+01  0.0000000000000E+00
-0.8931067449032E+00 -0.1378966186997E+01  0.0000000000000E+00
-0.8571924453329E+00 -0.1373061734396E+01  0.0000000000000E+00
-0.8212400755349E+00 -0.1367393714636E+01  0.0000000000000E+00
-0.7852510794390E+00 -0.1361963112090E+01  0.0000000000000E+00
-0.7492269214199E+00 -0.1356770875739E+01  0.0000000000000E+00
-0.6777056485815E+00 -0.1347184849055E+01  0.0000000000000E+00
-0.6422126030433E+00 -0.1342784468384E+01  0.0000000000000E+00
-0.6066914054888E+00 -0.1338617534531E+01  0.0000000000000E+00
-0.5711435255488E+00 -0.1334684768748E+01  0.0000000000000E+00
-0.5355704233029E+00 -0.1330986852489E+01  0.0000000000000E+00
-0.4999736369017E+00 -0.1327524435880E+01  0.0000000000000E+00
-0.4643546817971E+00 -0.1324298126257E+01  0.0000000000000E+00
-0.4287150862649E+00 -0.1321308491716E+01  0.0000000000000E+00
-0.3930563807228E+00 -0.1318556059836E+01  0.0000000000000E+00
-0.3573801183139E+00 -0.1316041318931E+01  0.0000000000000E+00
-0.3216878730590E+00 -0.1313764717124E+01  0.0000000000000E+00
-0.2859812157621E+00 -0.1311726660302E+01  0.0000000000000E+00
-0.2502617257092E+00 -0.1309927512732E+01  0.0000000000000E+00
-0.2145309892672E+00 -0.1308367596678E+01  0.0000000000000E+00
-0.1787905926666E+00 -0.1307047191884E+01  0.0000000000000E+00
-0.1430421463503E+00 -0.1305966536203E+01  0.0000000000000E+00
-0.1072872541886E+00 -0.1305125824139E+01  0.0000000000000E+00
-0.7152752388590E-01 -0.1304525207180E+01  0.0000000000000E+00
-0.3576456602431E-01 -0.1304164793652E+01  0.0000000000000E+00
 0.6896563736758E-08 -0.1304044648606E+01  0.0000000000000E+00
 0.3576457981713E-01 -0.1304164793745E+01  0.0000000000000E+00
 0.7152753767778E-01 -0.1304525207365E+01  0.0000000000000E+00
 0.1072872679789E+00 -0.1305125824417E+01  0.0000000000000E+00
 0.1430421601384E+00 -0.1305966536574E+01  0.0000000000000E+00
 0.1787906064519E+00 -0.1307047192347E+01  0.0000000000000E+00
 0.2145310030492E+00 -0.1308367597233E+01  0.0000000000000E+00
 0.2502617394871E+00 -0.1309927513380E+01  0.0000000000000E+00
 0.2859812295354E+00 -0.1311726661042E+01  0.0000000000000E+00
 0.3216878868270E+00 -0.1313764717956E+01  0.0000000000000E+00
 0.3573801320760E+00 -0.1316041319855E+01  0.0000000000000E+00
 0.3930563944785E+00 -0.1318556060852E+01  0.0000000000000E+00
 0.4287151000135E+00 -0.1321308492824E+01  0.0000000000000E+00
 0.4643546955381E+00 -0.1324298127456E+01  0.0000000000000E+00
 0.4999736506343E+00 -0.1327524437170E+01  0.0000000000000E+00
 0.5355704370268E+00 -0.1330986853870E+01  0.0000000000000E+00
 0.5711435392633E+00 -0.1334684770220E+01  0.0000000000000E+00
 0.6066914191932E+00 -0.1338617536093E+01  0.0000000000000E+00
 0.6422126167371E+00 -0.1342784470036E+01  0.0000000000000E+00
 0.6777056622642E+00 -0.1347184850797E+01  0.0000000000000E+00
 0.7492269343955E+00 -0.1356770877566E+01  0.0000000000000E+00
 0.7852510917199E+00 -0.1361963113902E+01  0.0000000000000E+00
 0.8212400871220E+00 -0.1367393716423E+01  0.0000000000000E+00
 0.8571924562271E+00 -0.1373061736151E+01  0.0000000000000E+00
 0.8931067551055E+00 -0.1378966188709E+01  0.0000000000000E+00
 0.9289815609321E+00 -0.1385106055236E+01  0.0000000000000E+00
 0.9648154726170E+00 -0.1391480283310E+01  0.0000000000000E+00
 0.1000607111408E+01 -0.1398087787904E+01  0.0000000000000E+00
[...]
<PointData Vectors="'U'">
<DataArray type="Float64" Name="U" NumberOfComponents="2" ComponentName0="U1" ComponentName1="U2" format="ascii">
-0.2096724546466E-37 -0.5363013899754E-37
-0.3236319828410E-37 -0.3975067203633E-37
-0.2096724546710E-37  0.5363013899784E-37
-0.2126446444097E-01 -0.4404306278367E-01
-0.1378922079622E-01 -0.1944632722978E-01
-0.1752618324487E-03 -0.1599694927368E-01
 0.7705937501011E-02 -0.3525395151616E-01
-0.3936487279939E+00 -0.3408109127997E+00
 0.2020940039816E+00 -0.3568748239018E+00
-0.4399678833454E+00 -0.4942599625820E+00
 0.2721523496721E+00 -0.5553059087458E+00
-0.3567474518005E-37 -0.1293135682982E-36
-0.3634199574038E-37 -0.1163136909311E-36
-0.3574525128819E-37 -0.1083420554889E-36
-0.3502969590905E-37 -0.1025768585535E-36
-0.3438768330444E-37 -0.9803489282918E-37
-0.3384576744348E-37 -0.9426048061164E-37
-0.3339633179631E-37 -0.9100604861447E-37
-0.3302565712608E-37 -0.8812331118048E-37
-0.3272059219160E-37 -0.8551732155145E-37
-0.3246997601764E-37 -0.8312420001928E-37
-0.3226467870760E-37 -0.8089927016888E-37
-0.3209730760482E-37 -0.7881028599125E-37
-0.3196187608389E-37 -0.7683335727597E-37
-0.3185351401557E-37 -0.7495038177039E-37
-0.3176823381031E-37 -0.7314737466114E-37
-0.3170274638393E-37 -0.7141334440312E-37
-0.3165431779953E-37 -0.6973951630565E-37
-0.3162065769064E-37 -0.6811878364620E-37
-0.3159983207875E-37 -0.6654531160012E-37
-0.3159042401792E-37 -0.6501438587424E-37
-0.3159068389196E-37 -0.6354028373082E-37
-0.3159921223487E-37 -0.6210137050644E-37
-0.3161509764199E-37 -0.6069453242395E-37
-0.3163740960433E-37 -0.5931709163600E-37
-0.3166531948418E-37 -0.5796666592426E-37
-0.3169808376671E-37 -0.5664110724637E-37
-0.3173502941933E-37 -0.5533844896136E-37
-0.3177554169065E-37 -0.5405686721632E-37
-0.3181905405154E-37 -0.5279464866428E-37
-0.3186503990696E-37 -0.5155016521070E-37
-0.3191300579293E-37 -0.5032185291293E-37
-0.3196248585058E-37 -0.4910819407032E-37
-0.3201303731719E-37 -0.4790770359596E-37
-0.3206423689996E-37 -0.4671891756927E-37
-0.3211567792171E-37 -0.4554038372524E-37
-0.3216696806965E-37 -0.4437065470656E-37
-0.3221772777089E-37 -0.4320828098218E-37
-0.3226758903275E-37 -0.4205180627241E-37
-0.3231619472849E-37 -0.4089976358457E-37
-0.3240826372609E-37 -0.3860303436129E-37
-0.3245106606987E-37 -0.3745533479543E-37
-0.3249129202699E-37 -0.3630603732027E-37
-0.3252864101121E-37 -0.3515358425151E-37
-0.3256282644111E-37 -0.3399639489697E-37
-0.3259357733925E-37 -0.3283286422375E-37
-0.3262064019711E-37 -0.3166136180549E-37
-0.3264378122236E-37 -0.3048022911516E-37
-0.3266278881997E-37 -0.2928777835238E-37
-0.3267747645362E-37 -0.2808228967288E-37
-0.3268768587846E-37 -0.2686200793639E-37
-0.3269329074551E-37 -0.2562513904291E-37
-0.3269420073080E-37 -0.2436984389388E-37
-0.3269036615880E-37 -0.2309423175739E-37
-0.3268178315409E-37 -0.2179635274076E-37
-0.3266849953750E-37 -0.2047418703823E-37
-0.3265062135473E-37 -0.1912563322442E-37
-0.3262832069566E-37 -0.1774848834858E-37
-0.3260184452680E-37 -0.1634043126766E-37
-0.3257126443288E-37 -0.1489885371326E-37
-0.3253892963900E-37 -0.1339755401894E-37
-0.3250398238986E-37 -0.1185704908269E-37
-0.3246699861119E-37 -0.1027428019068E-37
-0.3242880511691E-37 -0.8645802561836E-38
-0.3239039632756E-37 -0.6967762228002E-38
-0.3235295270604E-37 -0.5235800972052E-38
-0.3231785965496E-37 -0.3444933340674E-38
-0.3228672099539E-37 -0.1589391676771E-38
-0.3226135766619E-37  0.3375654193944E-39
-0.3224377355750E-37  0.2343878620916E-38
-0.3223605684725E-37  0.4438937227631E-38
-0.3224015830950E-37  0.6633758592691E-38
-0.3225746548386E-37  0.8940870684767E-38
-0.3228811912133E-37  0.1137314030659E-37
-0.3233042116460E-37  0.1393917117342E-37
-0.3238308375696E-37  0.1662710818050E-37
-0.3246645229763E-37  0.1934502755083E-37
-0.3276144245908E-37  0.2166826659720E-37
-0.3459300318891E-37  0.2147261727648E-37
-0.2101668053937E-01 -0.3841517527032E-01
-0.2048643784472E-01 -0.3503973375550E-01
-0.1995291795204E-01 -0.3264396430164E-01
-0.1947023042763E-01 -0.3079210336627E-01
-0.1903282410057E-01 -0.2928215026430E-01
-0.1862798872656E-01 -0.2800687343229E-01
-0.1824523296552E-01 -0.2690393899646E-01
-0.1787732332811E-01 -0.2593421935891E-01
-0.1751950256538E-01 -0.2507149311645E-01
-0.1716865415900E-01 -0.2429720194752E-01
-0.1682270296140E-01 -0.2359761428249E-01
-0.1648023122932E-01 -0.2296219928516E-01
-0.1614024337598E-01 -0.2238264711951E-01
-0.1580202061594E-01 -0.2185224447751E-01
-0.1546503416584E-01 -0.2136546526823E-01
-0.1512889415577E-01 -0.2091769065437E-01
-0.1479332470977E-01 -0.2050501275311E-01
-0.1445816381060E-01 -0.2012409245379E-01
-0.1412339797329E-01 -0.1977204708181E-01
-0.1346059869450E-01 -0.1915004109944E-01
-0.1313076785729E-01 -0.1887420869748E-01
-0.1280010742015E-01 -0.1861726053439E-01
-0.1246863467767E-01 -0.1837775287724E-01
-0.1213633715291E-01 -0.1815430181431E-01
-0.1180318999835E-01 -0.1794563778518E-01
-0.1146916946230E-01 -0.1775060136804E-01
-0.1113425812479E-01 -0.1756813721642E-01
-0.1079844713751E-01 -0.1739728647735E-01
-0.1046173737423E-01 -0.1723718001845E-01
-0.1012413967046E-01 -0.1708703245944E-01
-0.9785674457739E-02 -0.1694613706628E-01
-0.9446371476564E-02 -0.1681386167593E-01
-0.9106269185020E-02 -0.1668964531258E-01
-0.8765413971716E-02 -0.1657299543687E-01
-0.8423859560360E-02 -0.1646348585987E-01
-0.8081665789462E-02 -0.1636075495918E-01
-0.7738897705669E-02 -0.1626450445483E-01
-0.7395624479598E-02 -0.1617449851387E-01
-0.7051918264243E-02 -0.1609056318347E-01
-0.6707853022879E-02 -0.1601258612734E-01
-0.6363503291747E-02 -0.1594051663552E-01
-0.6018942920224E-02 -0.1587436590856E-01
-0.5674243831940E-02 -0.1581420762243E-01
-0.5329474773498E-02 -0.1576017877509E-01
-0.4984700079941E-02 -0.1571248084006E-01
-0.4639978582239E-02 -0.1567138127264E-01
-0.4295362162482E-02 -0.1563721534818E-01
-0.3950894913197E-02 -0.1561038851156E-01
-0.3606612081369E-02 -0.1559137919096E-01
-0.3262539197318E-02 -0.1558074220334E-01
-0.2918691512374E-02 -0.1557911282981E-01
-0.2575073368523E-02 -0.1558721163656E-01
-0.2231678217475E-02 -0.1560585009898E-01
-0.1888489631275E-02 -0.1563593688705E-01
-0.1545483475505E-02 -0.1567848433856E-01
-0.1202633158748E-02 -0.1573461277987E-01
-0.8599222001027E-03 -0.1580554969310E-01
-0.5173598847565E-03 -0.1589256976542E-01
 0.1732643727090E-03 -0.1612436710356E-01
 0.5233889518550E-03 -0.1627503184655E-01
 0.8748139950022E-03 -0.1645125663541E-01
 0.1227531603303E-02 -0.1665573148271E-01
 0.1581706015325E-02 -0.1689159366441E-01
 0.1937624364800E-02 -0.1716253419900E-01
 0.2295688512087E-02 -0.1747293002415E-01
 0.2656434064861E-02 -0.1782802826600E-01
 0.3020574732008E-02 -0.1823420964245E-01
 0.3389079641022E-02 -0.1869937379465E-01
 0.3763304314666E-02 -0.1923352531358E-01
 0.4145202921906E-02 -0.1984969346347E-01
 0.4537675497006E-02 -0.2056545482980E-01
 0.4945108965381E-02 -0.2140558553464E-01
 0.5374125551412E-02 -0.2240695657016E-01
 0.5834256772365E-02 -0.2362813766633E-01
 0.6336872943653E-02 -0.2516960197707E-01
 0.6886253429827E-02 -0.2722013824781E-01
 0.7430288993111E-02 -0.3018617950779E-01
-0.1462486960066E+00 -0.1485828098182E+00
-0.2199144734142E+00 -0.2231239981666E+00
-0.2827721607020E+00 -0.2695224886328E+00
-0.3359331100871E+00 -0.2978234136257E+00
-0.3807081343313E+00 -0.3137948026763E+00
-0.4178054967154E+00 -0.3216955435849E+00
-0.4478998605220E+00 -0.3239258486502E+00
-0.4715189539395E+00 -0.3219798238324E+00
-0.4890343723453E+00 -0.3171608346891E+00
-0.5007696538903E+00 -0.3105067099820E+00
-0.5070977138979E+00 -0.3029432892988E+00
-0.5084075125042E+00 -0.2956766222793E+00
-0.5054042156608E+00 -0.2895785107523E+00
-0.4990220037742E+00 -0.2853538190439E+00
-0.4895468715707E+00 -0.2834882276010E+00
-0.4769090426050E+00 -0.2847006590945E+00
-0.4609134415199E+00 -0.2898216334888E+00
-0.4415672551809E+00 -0.2999319200007E+00
-0.4191115791574E+00 -0.3163608504616E+00
-0.3811316544604E+00 -0.3553832618260E+00
-0.3678530565605E+00 -0.3727681936707E+00
-0.3537684191181E+00 -0.3930534899801E+00
-0.3387678917345E+00 -0.4165394691104E+00
-0.3226899589376E+00 -0.4436666308238E+00
-0.3053090259696E+00 -0.4750535202787E+00
-0.2863251845449E+00 -0.5116038246427E+00
-0.2656540122186E+00 -0.5549386463097E+00
-0.2431671791596E+00 -0.6084867134321E+00
-0.2184368173873E+00 -0.6758207586211E+00
-0.1933216483581E+00 -0.7536151686436E+00
-0.1706101982040E+00 -0.8347136400911E+00
-0.1514543473557E+00 -0.9149026938423E+00
-0.1361689769147E+00 -0.9912315492998E+00
-0.1246901490120E+00 -0.1061466946457E+01
-0.1167417138155E+00 -0.1123863500701E+01
-0.1119092100960E+00 -0.1177043148415E+01
-0.1096753032154E+00 -0.1219924682359E+01
-0.1094354917476E+00 -0.1251682357044E+01
-0.1105011949243E+00 -0.1271716271369E+01
-0.1120930647186E+00 -0.1279646395082E+01
-0.1133868865937E+00 -0.1275360664022E+01
-0.1136103950160E+00 -0.1258959558768E+01
-0.1120484253828E+00 -0.1230745015962E+01
-0.1080375632664E+00 -0.1191229110195E+01
-0.1009683263716E+00 -0.1141146572056E+01
-0.9029635270208E-01 -0.1081477126926E+01
-0.7556625334588E-01 -0.1013479473371E+01
-0.5645638930171E-01 -0.9387406574570E+00
-0.3286701076382E-01 -0.8592634191444E+00
-0.5096922478798E-02 -0.7776149253903E+00
 0.2576705826342E-01 -0.6972133635327E+00
 0.5699362901872E-01 -0.6233108028825E+00
 0.8463802632132E-01 -0.5618662327256E+00
 0.1082400453995E+00 -0.5126671863808E+00
 0.1296607716259E+00 -0.4714922881379E+00
 0.1494661647127E+00 -0.4362519567050E+00
 0.1679996636315E+00 -0.4057928083957E+00
 0.1854975959476E+00 -0.3794263824653E+00
 0.2366236092735E+00 -0.3175106170316E+00
 0.2680066731573E+00 -0.2886911809214E+00
 0.2963047823074E+00 -0.2679975934372E+00
 0.3213808990625E+00 -0.2537850612732E+00
 0.3434042848575E+00 -0.2449486139771E+00
 0.3627759985374E+00 -0.2409523469436E+00
 0.3795163291517E+00 -0.2414062357726E+00
 0.3930159165071E+00 -0.2461385013881E+00
 0.4019042360307E+00 -0.2535082060158E+00
 0.4053985940465E+00 -0.2617034121971E+00
 0.4030910522458E+00 -0.2696531613444E+00
 0.3946400507136E+00 -0.2762901367048E+00
 0.3797563516693E+00 -0.2805204129178E+00
 0.3580896647880E+00 -0.2810561800740E+00
 0.3291507561637E+00 -0.2764018593183E+00
 0.2922735508391E+00 -0.2642477059123E+00
 0.2467050307640E+00 -0.2405404702267E+00
 0.1911121042867E+00 -0.1997072449244E+00
 0.1242630663572E+00 -0.1320425456608E+00
-0.4917300928693E-03 -0.8646359717444E-03
-0.8104667124013E-03 -0.1488805697569E-02
-0.1072352805258E-02 -0.2071220624059E-02
-0.1295907283502E-02 -0.2628350296263E-02
-0.1493865381366E-02 -0.3171100229410E-02
-0.1672449515115E-02 -0.3705093097150E-02
-0.1836132874540E-02 -0.4233759059668E-02
-0.1987950767988E-02 -0.4759441551677E-02
-0.2130154279542E-02 -0.5283871424179E-02
-0.2264432821301E-02 -0.5808444910921E-02
-0.2392086984034E-02 -0.6334386174188E-02
-0.2514130422212E-02 -0.6862854239415E-02
-0.2631366098260E-02 -0.7395037634974E-02
-0.2744438917865E-02 -0.7932227641965E-02
-0.2853869374670E-02 -0.8475862224814E-02
-0.2960101081989E-02 -0.9027708612534E-02
-0.3063505851424E-02 -0.9589928457726E-02
-0.3164391370936E-02 -0.1016538050733E-01
-0.3263037141605E-02 -0.1075843142323E-01
-0.3360863714126E-02 -0.1137667327581E-01
-0.3462090897192E-02 -0.1202789711136E-01
-0.3571958273893E-02 -0.1271495195271E-01
-0.3694893091034E-02 -0.1343708526982E-01
-0.3834369235363E-02 -0.1419291260623E-01
-0.3993451515903E-02 -0.1498201471036E-01
-0.4175340152361E-02 -0.1580543651521E-01
-0.4383757531629E-02 -0.1666568185788E-01
-0.4623225756484E-02 -0.1756661847485E-01
-0.4899349723300E-02 -0.1851336761386E-01
-0.5219099118814E-02 -0.1951173910060E-01
-0.5590554321254E-02 -0.2056725691109E-01
-0.6022475203558E-02 -0.2168662985406E-01
-0.6525148281828E-02 -0.2288108690067E-01
-0.7111776713784E-02 -0.2416710638103E-01
-0.7800122228434E-02 -0.2556873328006E-01
-0.8614795540152E-02 -0.2712221135940E-01
-0.9595120919511E-02 -0.2888663915322E-01
-0.1079823454794E-01 -0.3096497934407E-01
-0.1238611411204E-01 -0.3356776951165E-01
-0.1448196464798E-01 -0.3734905108688E-01
 0.1696180638910E-02 -0.2917148252115E-01
 0.6664308826207E-04 -0.2578545386331E-01
-0.1076828624686E-02 -0.2348724299278E-01
-0.1852838807674E-02 -0.2166966606569E-01
-0.2413702455120E-02 -0.2013821997126E-01
-0.2813647174923E-02 -0.1879847709267E-01
-0.3090124724044E-02 -0.1759669695599E-01
-0.3266857202303E-02 -0.1650023129319E-01
-0.3361219057407E-02 -0.1548758374837E-01
-0.3386400014731E-02 -0.1454407278030E-01
-0.3352949438016E-02 -0.1365962599788E-01
-0.3270087696887E-02 -0.1282811141471E-01
-0.3146601898932E-02 -0.1204499391852E-01
-0.2990284571682E-02 -0.1130553983926E-01
-0.2807633691603E-02 -0.1060536852376E-01
-0.2604134326880E-02 -0.9941009494000E-02
-0.2384537676376E-02 -0.9310023253345E-02
-0.2153102425330E-02 -0.8711124341534E-02
-0.1913900017301E-02 -0.8144292024222E-02
-0.1671188211027E-02 -0.7610589424513E-02
-0.1429712557486E-02 -0.7111206020221E-02
-0.1194467288786E-02 -0.6645271273191E-02
-0.9693051302720E-03 -0.6207938476687E-02
-0.7557807622245E-03 -0.5792958410351E-02
-0.5545613239332E-03 -0.5396413722488E-02
-0.3663260045638E-03 -0.5015655722327E-02
-0.1917894512951E-03 -0.4648647566183E-02
-0.3169130674554E-04 -0.4293716270172E-02
 0.1131609286286E-03 -0.3949483334250E-02
 0.2418951004680E-03 -0.3614725323976E-02
 0.3535328190572E-03 -0.3288333454158E-02
 0.4469513143430E-03 -0.2969255998636E-02
 0.5208347539028E-03 -0.2656429804235E-02
 0.5736041488514E-03 -0.2348705812956E-02
 0.6033064176993E-03 -0.2044740684041E-02
 0.6074705501705E-03 -0.1742817748889E-02
 0.5827163476944E-03 -0.1440545060706E-02
 0.5245408195744E-03 -0.1134165140070E-02
 0.4246392830018E-03 -0.8166936144289E-03
 0.2710695852178E-03 -0.4772333031539E-03
-0.4320198964415E+00 -0.5123305390193E+00
-0.4234141384133E+00 -0.5311690615055E+00
-0.4140298326771E+00 -0.5506102975583E+00
-0.4038086890085E+00 -0.5705248164927E+00
-0.3927031450514E+00 -0.5907772837371E+00
-0.3806733163836E+00 -0.6112197742823E+00
-0.3676873229497E+00 -0.6316902268026E+00
-0.3537224856837E+00 -0.6520141445723E+00
-0.3387668114453E+00 -0.6720059628805E+00
-0.3228205216991E+00 -0.6914713562864E+00
-0.3058971887451E+00 -0.7102124537805E+00
-0.2880239455016E+00 -0.7280330315228E+00
-0.2692410280188E+00 -0.7447428867444E+00
-0.2496008817260E+00 -0.7601614142466E+00
-0.2291670147308E+00 -0.7741205725605E+00
-0.2080126916199E+00 -0.7864673781159E+00
-0.1862196083680E+00 -0.7970659268084E+00
-0.1638765805345E+00 -0.8057990368426E+00
-0.1410782871272E+00 -0.8125695625870E+00
-0.1179240856302E+00 -0.8173014113987E+00
-0.9451689777028E-01 -0.8199403065114E+00
-0.7096215560092E-01 -0.8204543164719E+00
-0.4736678803544E-01 -0.8188342167293E+00
-0.2383821218613E-01 -0.8150935991460E+00
-0.4833127559579E-03 -0.8092687964144E+00
 0.2259262190148E-01 -0.8014186226619E+00
 0.4528703799293E-01 -0.7916239202993E+00
 0.6750134316258E-01 -0.7799868889558E+00
 0.8914226806627E-01 -0.7666301274385E+00
 0.1101233000749E+00 -0.7516953790317E+00
 0.1303661950233E+00 -0.7353418345401E+00
 0.1498024938417E+00 -0.7177437629693E+00
 0.1683749024604E+00 -0.6990870926080E+00
 0.1860381674214E+00 -0.6795649606677E+00
 0.2027598119493E+00 -0.6593750518301E+00
 0.2185207805495E+00 -0.6387168781298E+00
 0.2333161840123E+00 -0.6177873785402E+00
 0.2471562982599E+00 -0.5967785892720E+00
 0.2600697969598E+00 -0.5758783927432E+00
-0.4349938086184E+00 -0.4717295880559E+00
-0.4280824547872E+00 -0.4481004891201E+00
-0.4195150618844E+00 -0.4234139098674E+00
-0.4095375660496E+00 -0.3978635602901E+00
-0.3983013720090E+00 -0.3716406584203E+00
-0.3858800192329E+00 -0.3449110410915E+00
-0.3722692535435E+00 -0.3178167614077E+00
-0.3574042536184E+00 -0.2904842157462E+00
-0.3411599201930E+00 -0.2630553176195E+00
-0.3234318712954E+00 -0.2357049566468E+00
-0.3041362303946E+00 -0.2086317687528E+00
-0.2831263946780E+00 -0.1820616158804E+00
-0.2601900432277E+00 -0.1562499365245E+00
-0.2350400367794E+00 -0.1314707615609E+00
-0.2073182391176E+00 -0.1080075425821E+00
-0.1766081698587E+00 -0.8614449240501E-01
-0.1424447785355E+00 -0.6615502933063E-01
-0.1043178391735E+00 -0.4828226965297E-01
-0.6165479710968E-01 -0.3270283970325E-01
 0.2734476819869E+00 -0.5250086959884E+00
 0.2730914386370E+00 -0.4943050538181E+00
 0.2713426148326E+00 -0.4631775361125E+00
 0.2684161522156E+00 -0.4317875071257E+00
 0.2644314486079E+00 -0.4002877454514E+00
 0.2594321259931E+00 -0.3688038913991E+00
 0.2533895112939E+00 -0.3374379584916E+00
 0.2462195079393E+00 -0.3062773553981E+00
 0.2377815247054E+00 -0.2754287749997E+00
 0.2279607270952E+00 -0.2450347170328E+00
 0.2166684039162E+00 -0.2152629662093E+00
 0.2037510426859E+00 -0.1863133211908E+00
 0.1889859748807E+00 -0.1584214560670E+00
 0.1720714925147E+00 -0.1318491719237E+00
 0.1526299034490E+00 -0.1068769368251E+00
 0.1302195177579E+00 -0.8379741279609E-01
 0.1043413235645E+00 -0.6290720014663E-01
 0.7443554279617E-01 -0.4449316197640E-01
 0.3985481049815E-01 -0.2880662795710E-01
-0.4472098128293E+00 -0.4896243061753E+00
-0.4533981183827E+00 -0.4840107879649E+00
-0.4584307118513E+00 -0.4775306677024E+00
-0.4622718229721E+00 -0.4702849243853E+00
-0.4649076606807E+00 -0.4623713030044E+00
-0.4663388130988E+00 -0.4538920146040E+00
-0.4665782468024E+00 -0.4449559596957E+00
-0.4656519204999E+00 -0.4356793233568E+00
-0.4636002107131E+00 -0.4261849161636E+00
-0.4604794080114E+00 -0.4166005265762E+00
-0.4563628074457E+00 -0.4070563799357E+00
-0.4513410485373E+00 -0.3976817959854E+00
-0.4455214161250E+00 -0.3886011871531E+00
-0.4390258816982E+00 -0.3799296443448E+00
-0.4319878185009E+00 -0.3717684998594E+00
-0.4245476623015E+00 -0.3642014140982E+00
-0.4168481656165E+00 -0.3572914864847E+00
-0.4090313717227E+00 -0.3510800657318E+00
-0.4012367878716E+00 -0.3455850566614E+00
 0.2799246610317E+00 -0.5519083251083E+00
 0.2867031138736E+00 -0.5471938650012E+00
 0.2923527869213E+00 -0.5412243766971E+00
 0.2967948902193E+00 -0.5340655801200E+00
 0.2999677118232E+00 -0.5257854504963E+00
 0.3018199147723E+00 -0.5164633772842E+00
 0.3023095292369E+00 -0.5061938963736E+00
 0.3014058715702E+00 -0.4950891949802E+00
 0.2990928542691E+00 -0.4832804803678E+00
 0.2953731142341E+00 -0.4709183231910E+00
 0.2902726020750E+00 -0.4581718229581E+00
 0.2838453118049E+00 -0.4452263372716E+00
 0.2761777017462E+00 -0.4322794274809E+00
 0.2673920843022E+00 -0.4195346268281E+00
 0.2576478610647E+00 -0.4071926860021E+00
 0.2471391107582E+00 -0.3954402617059E+00
 0.2360870189980E+00 -0.3844367528027E+00
 0.2247284284990E+00 -0.3743019218825E+00
 0.2133010813763E+00 -0.3651050276171E+00
-0.4127564150791E-03 -0.7224104118317E-03
-0.7554057826031E-03 -0.1390417763175E-02
-0.1017968329437E-02 -0.1986427128175E-02
-0.1244454397473E-02 -0.2555738181913E-02
-0.1443760226107E-02 -0.3107821893848E-02
-0.1623397766187E-02 -0.3649479874139E-02
-0.1787782367297E-02 -0.4184590913583E-02
-0.1940090609470E-02 -0.4715825663210E-02
-0.2082613114538E-02 -0.5245135748073E-02
-0.2217071411850E-02 -0.5774077924802E-02
-0.2344779955098E-02 -0.6303996533684E-02
-0.2466756666074E-02 -0.6836143240368E-02
-0.2583800170720E-02 -0.7371779535778E-02
-0.2696543389420E-02 -0.7912255095216E-02
-0.2805486377694E-02 -0.8459055136150E-02
-0.2911041332200E-02 -0.9013985521164E-02
-0.3013531386856E-02 -0.9579236305371E-02
-0.3113176433411E-02 -0.1015768892709E-01
-0.3210175257239E-02 -0.1075335503000E-01
-0.3306035676550E-02 -0.1137131356496E-01
-0.3405322483991E-02 -0.1201651969909E-01
-0.3513712970429E-02 -0.1269171781698E-01
-0.3635893339385E-02 -0.1339750559928E-01
-0.3775409526147E-02 -0.1413371256097E-01
-0.3935323055807E-02 -0.1490048781617E-01
-0.4118850176244E-02 -0.1569882075646E-01
-0.4329800399809E-02 -0.1653069355091E-01
-0.4572885305147E-02 -0.1739909038950E-01
-0.4854034946685E-02 -0.1830790847946E-01
-0.5180574087170E-02 -0.1926192896943E-01
-0.5560688642372E-02 -0.2026655951251E-01
-0.6003245817872E-02 -0.2132770640066E-01
-0.6519015739062E-02 -0.2245397511763E-01
-0.7122089570990E-02 -0.2365787625706E-01