<VTKFile type="UnstructuredGrid" version="1,0" byte_order="LittleEndian">
<UnstructuredGrid>
<Piece NumberOfPoints="1502" NumberOfCells="1440">
<Points>
<DataArray type="Float64" NumberOfComponents="3" format="ascii">
-0.1100000000000E+01 -0.4304044648606E+01  0.0000000000000E+00
 0.0000000000000E+00 -0.4304044648606E+01  0.0000000000000E+00
 0.1100000000000E+01 -0.4304044648606E+01  0.0000000000000E+00
-0.1426338184892E+01 -0.1495137730994E+01  0.0000000000000E+00
-0.7131690856113E+00 -0.1351817918288E+01  0.0000000000000E+00
 0.7131690992823E+00 -0.1351817920119E+01  0.0000000000000E+00
 0.1426338184892E+01 -0.1495137730994E+01  0.0000000000000E+00
-0.1297471036855E+01  0.8924645033579E+00  0.0000000000000E+00
 0.1297471037589E+01  0.8924645030013E+00  0.0000000000000E+00
-0.7500000000000E+00  0.3449934570704E+00  0.0000000000000E+00
 0.7500000000000E+00  0.3449934570704E+00  0.0000000000000E+00
-0.1045000000000E+01 -0.4304044648606E+01  0.0000000000000E+00
-0.9900000000000E+00 -0.4304044648606E+01  0.0000000000000E+00
-0.9350000000000E+00 -0.4304044648606E+01  0.0000000000000E+00
-0.8800000000000E+00 -0.4304044648606E+01  0.0000000000000E+00
-0.8250000000000E+00 -0.4304044648606E+01  0.0000000000000E+00
-0.7700000000000E+00 -0.4304044648606E+01  0.0000000000000E+00
-0.7150000000000E+00 -0.4304044648606E+01  0.0000000000000E+00
-0.6600000000000E+00 -0.4304044648606E+01  0.0000000000000E+00
-0.6050000000000E+00 -0.4304044648606E+01  0.0000000000000E+00
-0.5500000000000E+00 -0.4304044648606E+01  0.0000000000000E+00
-0.4950000000000E+00 -0.4304044648606E+01  0.0000000000000E+00
-0.4400000000000E+00 -0.4304044648606E+01  0.0000000000000E+00
-0.3850000000000E+00 -0.4304044648606E+01  0.0000000000000E+00
-0.3300000000000E+00 -0.4304044648606E+01  0.0000000000000E+00
-0.2750000000000E+00 -0.4304044648606E+01  0.0000000000000E+00
-0.2200000000000E+00 -0.4304044648606E+01  0.0000000000000E+00
-0.1650000000000E+00 -0.4304044648606E+01  0.0000000000000E+00
-0.1100000000000E+00 -0.4304044648606E+01  0.0000000000000E+00
-0.5500000000000E-01 -0.4304044648606E+01  0.0000000000000E+00
 0.5500000000000E-01 -0.4304044648606E+01  0.0000000000000E+00
 0.1100000000000E+00 -0.4304044648606E+01  0.0000000000000E+00
 0.1650000000000E+00 -0.4304044648606E+01  0.0000000000000E+00
 0.2200000000000E+00 -0.4304044648606E+01  0.0000000000000E+00
 0.2750000000000E+00 -0.4304044648606E+01  0.0000000000000E+00
 0.3300000000000E+00 -0.4304044648606E+01  0.0000000000000E+00
 0.3850000000000E+00 -0.4304044648606E+01  0.0000000000000E+00
 0.4400000000000E+00 -0.4304044648606E+01  0.0000000000000E+00
 0.4950000000000E+00 -0.4304044648606E+01  0.0000000000000E+00
 0.5500000000000E+00 -0.4304044648606E+01  0.0000000000000E+00
 0.6050000000000E+00 -0.4304044648606E+01  0.0000000000000E+00
 0.6600000000000E+00 -0.4304044648606E+01  0.0000000000000E+00
 0.7150000000000E+00 -0.4304044648606E+01  0.0000000000000E+00
 0.7700000000000E+00 -0.4304044648606E+01  0.0000000000000E+00
 0.8250000000000E+00 -0.4304044648606E+01  0.0000000000000E+00
 0.8800000000000E+00 -0.4304044648606E+01  0.0000000000000E+00
 0.9350000000000E+00 -0.4304044648606E+01  0.0000000000000E+00
 0.9900000000000E+00 -0.4304044648606E+01  0.0000000000000E+00
 0.1045000000000E+01 -0.4304044648606E+01  0.0000000000000E+00
-0.1355910848380E+01 -0.1476732672072E+01  0.0000000000000E+00
-0.1285259981017E+01 -0.1459205415754E+01  0.0000000000000E+00
-0.1214394584761E+01 -0.1442566916018E+01  0.0000000000000E+00
-0.1143323993112E+01 -0.1426827745365E+01  0.0000000000000E+00
-0.1072058114862E+01 -0.1411998118171E+01  0.0000000000000E+00
-0.1000607103274E+01 -0.1398087786375E+01  0.0000000000000E+00
-0.9289815514207E+00 -0.1385106053576E+01  0.0000000000000E+00
-0.8571924453329E+00 -0.1373061734396E+01  0.0000000000000E+00
-0.7852510794390E+00 -0.1361963112090E+01  0.0000000000000E+00
-0.6422126030433E+00 -0.1342784468384E+01  0.0000000000000E+00
-0.5711435255488E+00 -0.1334684768748E+01  0.0000000000000E+00
-0.4999736369017E+00 -0.1327524435880E+01  0.0000000000000E+00
-0.4287150862649E+00 -0.1321308491716E+01  0.0000000000000E+00
-0.3573801183139E+00 -0.1316041318931E+01  0.0000000000000E+00
-0.2859812157621E+00 -0.1311726660302E+01  0.0000000000000E+00
-0.2145309892672E+00 -0.1308367596678E+01  0.0000000000000E+00
-0.1430421463503E+00 -0.1305966536203E+01  0.0000000000000E+00
-0.7152752388590E-01 -0.1304525207180E+01  0.0000000000000E+00
 0.6896563986558E-08 -0.1304044648606E+01  0.0000000000000E+00
 0.7152753767778E-01 -0.1304525207365E+01  0.0000000000000E+00
 0.1430421601384E+00 -0.1305966536574E+01  0.0000000000000E+00
 0.2145310030492E+00 -0.1308367597233E+01  0.0000000000000E+00
 0.2859812295354E+00 -0.1311726661042E+01  0.0000000000000E+00
 0.3573801320760E+00 -0.1316041319855E+01  0.0000000000000E+00
 0.4287151000135E+00 -0.1321308492824E+01  0.0000000000000E+00
 0.4999736506343E+00 -0.1327524437170E+01  0.0000000000000E+00
 0.5711435392633E+00 -0.1334684770220E+01  0.0000000000000E+00
 0.6422126167371E+00 -0.1342784470036E+01  0.0000000000000E+00
 0.7852510917199E+00 -0.1361963113902E+01  0.0000000000000E+00
 0.8571924562271E+00 -0.1373061736151E+01  0.0000000000000E+00
 0.9289815609321E+00 -0.1385106055236E+01  0.0000000000000E+00
 0.1000607111408E+01 -0.1398087787904E+01  0.0000000000000E+00
 0.1072058121623E+01 -0.1411998119533E+01  0.0000000000000E+00
 0.1143323998507E+01 -0.1426827746523E+01  0.0000000000000E+00
 0.1214394588795E+01 -0.1442566916938E+01  0.0000000000000E+00
 0.1285259983698E+01 -0.1459205416402E+01  0.0000000000000E+00
 0.1355910849717E+01 -0.1476732672412E+01  0.0000000000000E+00
-0.1579712636672E+01 -0.1257117726587E+01  0.0000000000000E+00
-0.1733164540211E+01 -0.1019175933670E+01  0.0000000000000E+00
-0.1854662117542E+01 -0.7635066404071E+00  0.0000000000000E+00
-0.1941975481337E+01 -0.4942606593644E+00  0.0000000000000E+00
-0.1991516502432E+01 -0.2156092846034E+00  0.0000000000000E+00
-0.1998781287050E+01  0.6736447573279E-01  0.0000000000000E+00
-0.1925316867218E+01  0.3385059547416E+00  0.0000000000000E+00
-0.1756248887890E+01  0.5644442091257E+00  0.0000000000000E+00
-0.1540277150090E+01  0.7471961778048E+00  0.0000000000000E+00
-0.1173981215584E+01  0.9468055532948E+00  0.0000000000000E+00
-0.1048246390832E+01  0.9957805369659E+00  0.0000000000000E+00
-0.9216449825030E+00  0.1042480347406E+01  0.0000000000000E+00
-0.7946812217419E+00  0.1088183183765E+01  0.0000000000000E+00
-0.6661180574429E+00  0.1129122063103E+01  0.0000000000000E+00
-0.5354041844713E+00  0.1162549250252E+01  0.0000000000000E+00
-0.4029695874389E+00  0.1188340213072E+01  0.0000000000000E+00
-0.2693161135181E+00  0.1206817739605E+01  0.0000000000000E+00
-0.1348660417516E+00  0.1218121850014E+01  0.0000000000000E+00
 0.4058846663134E-09  0.1222022719718E+01  0.0000000000000E+00
 0.1348660425620E+00  0.1218121849962E+01  0.0000000000000E+00
 0.2693161143243E+00  0.1206817739504E+01  0.0000000000000E+00
 0.4029695882387E+00  0.1188340212925E+01  0.0000000000000E+00
 0.5354041852619E+00  0.1162549250060E+01  0.0000000000000E+00
 0.6661180582227E+00  0.1129122062868E+01  0.0000000000000E+00
 0.7946812225112E+00  0.1088183183495E+01  0.0000000000000E+00
 0.9216449832687E+00  0.1042480347127E+01  0.0000000000000E+00
 0.1048246391595E+01  0.9957805366789E+00  0.0000000000000E+00
 0.1173981216337E+01  0.9468055529829E+00  0.0000000000000E+00
 0.1540277150686E+01  0.7471961773831E+00  0.0000000000000E+00
 0.1756248888337E+01  0.5644442086587E+00  0.0000000000000E+00
 0.1925316867476E+01  0.3385059542402E+00  0.0000000000000E+00
 0.1998781287072E+01  0.6736447525390E-01  0.0000000000000E+00
 0.1991516502379E+01 -0.2156092849952E+00  0.0000000000000E+00
 0.1941975481197E+01 -0.4942606596555E+00  0.0000000000000E+00
 0.1854662117367E+01 -0.7635066405985E+00  0.0000000000000E+00
 0.1733164540072E+01 -0.1019175933786E+01  0.0000000000000E+00
 0.1579712636620E+01 -0.1257117726658E+01  0.0000000000000E+00
-0.1100000000000E+01 -0.4167858878309E+01  0.0000000000000E+00
-0.1100000000000E+01 -0.4031673085110E+01  0.0000000000000E+00
-0.1100000000000E+01 -0.3895487265942E+01  0.0000000000000E+00
-0.1100000000000E+01 -0.3759301447614E+01  0.0000000000000E+00
-0.1100000000000E+01 -0.3623115632099E+01  0.0000000000000E+00
-0.1100000000000E+01 -0.3486929673705E+01  0.0000000000000E+00
-0.1100000000000E+01 -0.3350743588902E+01  0.0000000000000E+00
-0.1100000000000E+01 -0.3214558196319E+01  0.0000000000000E+00
-0.1100000000000E+01 -0.3078372499853E+01  0.0000000000000E+00
-0.1100009219814E+01 -0.2942186831538E+01  0.0000000000000E+00
-0.1101425067002E+01 -0.2806011978909E+01  0.0000000000000E+00
-0.1107601577287E+01 -0.2669976600093E+01  0.0000000000000E+00
-0.1119747344921E+01 -0.2534345262128E+01  0.0000000000000E+00
-0.1137772499496E+01 -0.2399367495624E+01  0.0000000000000E+00
-0.1161564969771E+01 -0.2265287019052E+01  0.0000000000000E+00
-0.1191325563594E+01 -0.2132404467843E+01  0.0000000000000E+00
-0.1226713953463E+01 -0.2000906688008E+01  0.0000000000000E+00
-0.1267386994665E+01 -0.1870945985496E+01  0.0000000000000E+00
-0.1313508982080E+01 -0.1742820021577E+01  0.0000000000000E+00
-0.1365854654983E+01 -0.1617114507943E+01  0.0000000000000E+00
 0.1365854655064E+01 -0.1617114507984E+01  0.0000000000000E+00
 0.1313508982144E+01 -0.1742820021612E+01  0.0000000000000E+00
 0.1267386994709E+01 -0.1870945985522E+01  0.0000000000000E+00
 0.1226713953493E+01 -0.2000906688028E+01  0.0000000000000E+00
 0.1191325563615E+01 -0.2132404467860E+01  0.0000000000000E+00
 0.1161564969779E+01 -0.2265287019065E+01  0.0000000000000E+00
 0.1137772499496E+01 -0.2399367495636E+01  0.0000000000000E+00
 0.1119747344920E+01 -0.2534345262137E+01  0.0000000000000E+00
 0.1107601577287E+01 -0.2669976600103E+01  0.0000000000000E+00
 0.1101425067003E+01 -0.2806011978917E+01  0.0000000000000E+00
 0.1100009219814E+01 -0.2942186831546E+01  0.0000000000000E+00
 0.1100000000000E+01 -0.3078372499860E+01  0.0000000000000E+00
[...]
<PointData Vectors="'U'">
<DataArray type="Float64" Name="U" NumberOfComponents="2" ComponentName0="U1" ComponentName1="U2" format="ascii">
-0.8907937620461E-37 -0.2323086307874E-36
-0.6700141930241E-37 -0.4872348001217E-37
-0.8726214322141E-37  0.2276884042566E-36
-0.1463428574973E-01 -0.3928223544810E-01
-0.7093173558675E-02 -0.1768394722978E-01
 0.7093173691786E-02 -0.1768394731376E-01
 0.1463428574630E-01 -0.3928223545386E-01
-0.2993513926404E+00 -0.3390962751310E+00
 0.2993513931347E+00 -0.3390962751018E+00
-0.3511913674208E+00 -0.5112197442032E+00
 0.3511913676795E+00 -0.5112197443200E+00
-0.1405839068149E-37 -0.2390169820723E-36
-0.2057965031241E-37 -0.2064347667632E-36
-0.2245322148846E-37 -0.1878901083630E-36
-0.2406386446109E-37 -0.1741651756429E-36
-0.2595342063380E-37 -0.1627052506739E-36
-0.2812787618482E-37 -0.1525275604156E-36
-0.3052267396665E-37 -0.1431709252484E-36
-0.3307832390264E-37 -0.1343892874352E-36
-0.3574968793526E-37 -0.1260387835571E-36
-0.3850500215109E-37 -0.1180297344035E-36
-0.4130608716537E-37 -0.1103361370414E-36
-0.4414343793785E-37 -0.1028903078711E-36
-0.4700570430115E-37 -0.9565630477161E-37
-0.4988178586153E-37 -0.8860510617247E-37
-0.5276256662414E-37 -0.8171078265420E-37
-0.5564037078121E-37 -0.7494873693345E-37
-0.5850859256287E-37 -0.6829455815705E-37
-0.6136145895223E-37 -0.6172325770844E-37
-0.6419388799646E-37 -0.5520875002079E-37
-0.6978019646097E-37 -0.4223814759832E-37
-0.7252699006980E-37 -0.3572147530509E-37
-0.7523925181466E-37 -0.2913998040883E-37
-0.7791519114301E-37 -0.2245771523623E-37
-0.8055386870184E-37 -0.1563592203978E-37
-0.8315529433587E-37 -0.8632566799097E-38
-0.8572051811171E-37 -0.1401670949487E-38
-0.8825169379797E-37  0.6107651586558E-38
-0.9075207811879E-37  0.1395253784957E-37
-0.9322439223869E-37  0.2219922105495E-37
-0.9569347907388E-37  0.3105857748943E-37
-0.9814850532608E-37  0.4049944944227E-37
-0.1005903036110E-36  0.5063301877128E-37
-0.1030166550747E-36  0.6159832841654E-37
-0.1054157890804E-36  0.7356636407196E-37
-0.1077643848919E-36  0.8673082060946E-37
-0.1100598543217E-36  0.1012244350881E-36
-0.1126041983749E-36  0.1166413655759E-36
-0.1183006077380E-36  0.1289841086898E-36
-0.1422546506547E-01 -0.3193420929814E-01
-0.1334605223106E-01 -0.2785462091160E-01
-0.1243804977690E-01 -0.2513684166116E-01
-0.1158427817254E-01 -0.2317169747140E-01
-0.1078041338333E-01 -0.2167700582282E-01
-0.1001129285502E-01 -0.2050309952813E-01
-0.9264180998526E-02 -0.1956290703067E-01
-0.8530772850763E-02 -0.1880184800358E-01
-0.7806938957497E-02 -0.1818368159686E-01
-0.6393437110660E-02 -0.1729011608466E-01
-0.5691041574987E-02 -0.1696640254555E-01
-0.4986840793493E-02 -0.1670344927086E-01
-0.4280474368648E-02 -0.1649247821688E-01
-0.3571793073328E-02 -0.1632592331344E-01
-0.2860804879922E-02 -0.1619762465006E-01
-0.2147703463883E-02 -0.1610270726077E-01
-0.1432851396538E-02 -0.1603748180122E-01
-0.7167504793650E-03 -0.1599936550899E-01
 0.6588619927417E-10 -0.1598682892513E-01
 0.7167506111209E-03 -0.1599936551357E-01
 0.1432851528249E-02 -0.1603748181058E-01
 0.2147703595533E-02 -0.1610270727533E-01
 0.2860805011519E-02 -0.1619762467045E-01
 0.3571793204908E-02 -0.1632592334051E-01
 0.4280474500285E-02 -0.1649247825174E-01
 0.4986840925304E-02 -0.1670344931491E-01
 0.5691041707130E-02 -0.1696640260053E-01
 0.6393437243316E-02 -0.1729011615268E-01
 0.7806939077777E-02 -0.1818368169000E-01
 0.8530772958117E-02 -0.1880184810545E-01
 0.9264181093154E-02 -0.1956290714072E-01
 0.1001129293714E-01 -0.2050309964549E-01
 0.1078041345305E-01 -0.2167700594617E-01
 0.1158427822964E-01 -0.2317169759871E-01
 0.1243804982031E-01 -0.2513684178890E-01
 0.1334605225805E-01 -0.2785462103254E-01
 0.1422546507225E-01 -0.3193420939554E-01
-0.2049652093381E+00 -0.1795713302517E+00
-0.3068437578664E+00 -0.2610929146484E+00
-0.3825162837186E+00 -0.2878987210976E+00
-0.4296146023693E+00 -0.2892842866629E+00
-0.4518784393988E+00 -0.2782294008805E+00
-0.4523555603741E+00 -0.2637572093556E+00
-0.4337088278445E+00 -0.2541091614481E+00
-0.4010215477490E+00 -0.2596622224587E+00
-0.3567631721873E+00 -0.2851164462066E+00
-0.2696520693739E+00 -0.3791876527090E+00
-0.2367399430462E+00 -0.4341668759456E+00
-0.1993876916052E+00 -0.5082211550623E+00
-0.1524581233913E+00 -0.6141719629763E+00
-0.9901514243427E-01 -0.7576204554976E+00
-0.5255661422467E-01 -0.9147192877538E+00
-0.2119017883889E-01 -0.1056755842187E+01
-0.4620795728374E-02 -0.1167895793310E+01
 0.7444320179312E-03 -0.1238314255204E+01
 0.1769184798661E-09 -0.1262443459394E+01
-0.7444316428394E-03 -0.1238314254919E+01
 0.4620796162603E-02 -0.1167895792764E+01
 0.2119017936160E-01 -0.1056755841429E+01
 0.5255661485043E-01 -0.9147192868646E+00
 0.9901514314397E-01 -0.7576204546020E+00
 0.1524581240815E+00 -0.6141719623114E+00
 0.1993876922061E+00 -0.5082211546801E+00
 0.2367399435999E+00 -0.4341668757194E+00
 0.2696520698938E+00 -0.3791876525933E+00
 0.3567631726073E+00 -0.2851164463263E+00
 0.4010215480974E+00 -0.2596622226691E+00
 0.4337088281213E+00 -0.2541091617127E+00
 0.4523555605725E+00 -0.2637572096341E+00
 0.4518784395405E+00 -0.2782294011389E+00
 0.4296146024889E+00 -0.2892842868961E+00
 0.3825162838494E+00 -0.2878987213341E+00
 0.3068437579973E+00 -0.2610929149442E+00
 0.2049652093895E+00 -0.1795713305682E+00
-0.6049095332608E-03 -0.1142498113942E-02
-0.9204702473589E-03 -0.1992844909476E-02
-0.1120795339292E-02 -0.2813560672356E-02
-0.1238394808286E-02 -0.3625771483752E-02
-0.1295091261033E-02 -0.4444522210631E-02
-0.1301996161249E-02 -0.5279366635602E-02
-0.1266969782510E-02 -0.6139016608392E-02
-0.1195515950528E-02 -0.7033621231981E-02
-0.1091781750422E-02 -0.7977257400879E-02
-0.9609369047369E-03 -0.8996095473275E-02
-0.8197726872312E-03 -0.1012874522530E-01
-0.6994229885674E-03 -0.1139458815455E-01
-0.6305156295645E-03 -0.1279307406104E-01
-0.6437813198435E-03 -0.1433370342991E-01
-0.7785874681975E-03 -0.1604384282281E-01
-0.1088006700570E-02 -0.1796292415878E-01
-0.1643393379961E-02 -0.2015084928384E-01
-0.2536497583010E-02 -0.2272421564963E-01
-0.3991360978234E-02 -0.2594636162998E-01
-0.6188426088349E-02 -0.3066313051021E-01
 0.6188426078148E-02 -0.3066313050249E-01
 0.3991360975508E-02 -0.2594636162507E-01
 0.2536497580132E-02 -0.2272421564696E-01
 0.1643393377262E-02 -0.2015084928147E-01
 0.1088006698012E-02 -0.1796292415670E-01
 0.7785874658043E-03 -0.1604384282082E-01
 0.6437813176761E-03 -0.1433370342789E-01
 0.6305156276680E-03 -0.1279307405908E-01
 0.6994229869410E-03 -0.1139458815268E-01
 0.8197726858539E-03 -0.1012874522357E-01
 0.9609369035739E-03 -0.8996095471703E-02
 0.1091781749441E-02 -0.7977257399464E-02
 0.1195515949707E-02 -0.7033621230717E-02
 0.1266969781836E-02 -0.6139016607274E-02
 0.1301996160708E-02 -0.5279366634632E-02
 0.1295091260609E-02 -0.4444522209809E-02
 0.1238394807966E-02 -0.3625771483080E-02
 0.1120795339058E-02 -0.2813560671836E-02
 0.9204702472073E-03 -0.1992844909113E-02
 0.6049095331537E-03 -0.1142498113740E-02
-0.3306409495711E+00 -0.5499306779859E+00
-0.3070457468154E+00 -0.5905817048434E+00
-0.2798789970185E+00 -0.6317663629597E+00
-0.2489546301317E+00 -0.6720000498347E+00
-0.2142906517904E+00 -0.7096465754175E+00
-0.1761339264672E+00 -0.7430211895701E+00
-0.1349456975584E+00 -0.7706073001041E+00
-0.9135368094346E-01 -0.7911937815630E+00
-0.4610049121197E-01 -0.8039008247797E+00
 0.1553617234862E-09 -0.8081956412438E+00
 0.4610049152188E-01 -0.8039008247861E+00
 0.9135368125097E-01 -0.7911937815762E+00
 0.1349456978620E+00 -0.7706073001246E+00
 0.1761339267655E+00 -0.7430211895989E+00
 0.2142906520825E+00 -0.7096465754561E+00
 0.2489546304169E+00 -0.6720000498857E+00
 0.2798789972966E+00 -0.6317663630251E+00
 0.3070457470868E+00 -0.5905817049251E+00
 0.3306409498361E+00 -0.5499306780850E+00
-0.3449422127939E+00 -0.4578182460959E+00
-0.3328541826017E+00 -0.4028994228467E+00
-0.3162367375230E+00 -0.3468728521337E+00
-0.2956478023978E+00 -0.2905091749648E+00
-0.2701492138274E+00 -0.2346333061423E+00
-0.2386704561573E+00 -0.1804597657596E+00
-0.1999152062536E+00 -0.1296838189357E+00
-0.1512879720698E+00 -0.8425895433675E-01
-0.8886875137573E-01 -0.4621595594078E-01
 0.3449422130335E+00 -0.4578182461739E+00
 0.3328541828224E+00 -0.4028994228739E+00
 0.3162367377506E+00 -0.3468728520908E+00
 0.2956478026997E+00 -0.2905091748316E+00
 0.2701492143214E+00 -0.2346333059204E+00
 0.2386704569541E+00 -0.1804597655118E+00
 0.1999152073357E+00 -0.1296838187769E+00
 0.1512879732442E+00 -0.8425895435222E-01
 0.8886875228384E-01 -0.4621595610173E-01
-0.3663847505534E+00 -0.5029145889946E+00
-0.3772844743097E+00 -0.4903739471380E+00
-0.3831834468718E+00 -0.4741964891299E+00
-0.3838012167523E+00 -0.4551367342444E+00
-0.3791252831120E+00 -0.4341067619322E+00
-0.3694319502896E+00 -0.4121830598397E+00
-0.3553532254729E+00 -0.3905732816624E+00
-0.3379492799980E+00 -0.3705236378305E+00
-0.3186709441011E+00 -0.3531160689852E+00
 0.3663847508302E+00 -0.5029145890778E+00
 0.3772844746025E+00 -0.4903739471887E+00
 0.3831834471790E+00 -0.4741964891507E+00
 0.3838012170736E+00 -0.4551367342395E+00
 0.3791252834487E+00 -0.4341067619075E+00
 0.3694319506454E+00 -0.4121830598021E+00
 0.3553532258535E+00 -0.3905732816195E+00
 0.3379492804108E+00 -0.3705236377889E+00
 0.3186709445529E+00 -0.3531160689492E+00
-0.4972275459897E-03 -0.9825515940815E-03
-0.8420249394421E-03 -0.1912699953991E-02
-0.1040051278433E-02 -0.2768866598226E-02
-0.1157908550892E-02 -0.3612150523920E-02
-0.1212224574138E-02 -0.4456734044565E-02
-0.1215749627877E-02 -0.5314339906242E-02
-0.1176072225684E-02 -0.6194572506649E-02
-0.1098569118453E-02 -0.7108130319802E-02
-0.9869338495732E-03 -0.8069349512031E-02
-0.8463670106051E-03 -0.9098247106448E-02
-0.6952372163440E-03 -0.1021487646985E-01
-0.5678332909442E-03 -0.1143126887587E-01
-0.4972424468845E-03 -0.1275431878291E-01
-0.5157385339997E-03 -0.1419317374556E-01
-0.6655827059772E-03 -0.1576439290767E-01
-0.1004561343282E-02 -0.1749548885013E-01
-0.1605596833325E-02 -0.1942641034895E-01
-0.2592668974846E-02 -0.2161847416240E-01
-0.4135135194949E-02 -0.2421262737444E-01
-0.7171765101039E-02 -0.2724885000796E-01
-0.4218158355889E-03 -0.9148956882424E-03
-0.7562495842210E-03 -0.1841912849463E-02
-0.9591036399671E-03 -0.2730141770141E-02
-0.1075504977622E-02 -0.3597373346542E-02
-0.1128041038846E-02 -0.4463974055181E-02
-0.1128399470551E-02 -0.5340673886539E-02
-0.1084478604808E-02 -0.6237433441413E-02
-0.1001461338009E-02 -0.7164608853519E-02
-0.8832744792273E-03 -0.8134545370125E-02
-0.7368706054026E-03 -0.9160371737790E-02
-0.5824299562633E-03 -0.1025235292996E-01
-0.4545869630715E-03 -0.1141868361745E-01
-0.3878705114116E-03 -0.1266667596315E-01
-0.4175732008216E-03 -0.1400318051989E-01
-0.5894812594930E-03 -0.1543735476947E-01
-0.9647308500044E-03 -0.1698503933589E-01
-0.1628099481331E-02 -0.1866317446110E-01
-0.2708229147496E-02 -0.2049515117333E-01
-0.4489462621522E-02 -0.2247008557853E-01
-0.7806592740692E-02 -0.2465214142924E-01
-0.3656637338257E-03 -0.8806838008516E-03
-0.6759828148842E-03 -0.1794014265425E-02
-0.8776177862097E-03 -0.2696391804691E-02
-0.9929133299943E-03 -0.3582899724972E-02
-0.1043370802077E-02 -0.4466891319523E-02
-0.1040946314916E-02 -0.5358923780310E-02
-0.9933566018428E-03 -0.6268030678689E-02
-0.9059079766408E-03 -0.7203414703838E-02
-0.7833858762889E-03 -0.8174441371315E-02
-0.6348492527592E-03 -0.9188700855436E-02
-0.4818051197302E-03 -0.1025072215319E-01
-0.3584708097199E-03 -0.1136600362266E-01
-0.3003771803853E-03 -0.1254012893031E-01
-0.3458591548512E-03 -0.1377695993145E-01
-0.5439630453275E-03 -0.1508003960265E-01
-0.9605473369300E-03 -0.1645500390748E-01
-0.1687164531413E-02 -0.1790382049081E-01
-0.2871607722095E-02 -0.1941603845115E-01
-0.4817386318002E-02 -0.2097008031844E-01
-0.8032422027971E-02 -0.2271388779947E-01
-0.3211468599525E-03 -0.8618853066158E-03
-0.6037403565837E-03 -0.1762707797014E-02
-0.7981093368174E-03 -0.2669550512285E-02
-0.9110210765995E-03 -0.3568949222232E-02
-0.9592428094869E-03 -0.4466224195286E-02
-0.9543240972910E-03 -0.5369715770513E-02
-0.9038521065307E-03 -0.6287098016863E-02
-0.8134214519602E-03 -0.7225705402436E-02
-0.6889948659847E-03 -0.8191839915551E-02
-0.5415393909553E-03 -0.9188904448545E-02
-0.3934303678439E-03 -0.1021776195622E-01
-0.2782813914330E-03 -0.1128177432408E-01
-0.2323542087584E-03 -0.1238432961874E-01
-0.2964687437848E-03 -0.1352651001207E-01
-0.5226556112725E-03 -0.1470765011961E-01
-0.9801841239103E-03 -0.1592697249105E-01
-0.1765661918306E-02 -0.1717709161832E-01
-0.3031793528353E-02 -0.1844143658149E-01
-0.5026352433703E-02 -0.1973219871047E-01
-0.7986338828591E-02 -0.2121603533657E-01
-0.2841021266651E-03 -0.8511400264930E-03
-0.5391141518270E-03 -0.1742249470850E-02
-0.7222011889604E-03 -0.2649026294313E-02
-0.8308682634037E-03 -0.3555945970406E-02
-0.8765236217840E-03 -0.4462485458926E-02
-0.8694300624023E-03 -0.5373802452045E-02
-0.8169832808272E-03 -0.6295655490970E-02
-0.7251803359002E-03 -0.7233213424886E-02
-0.6011818819744E-03 -0.8189957422637E-02
-0.4574990343657E-03 -0.9166163075485E-02
-0.3170052844081E-03 -0.1016021611812E-01
-0.2126519768286E-03 -0.1117375095734E-01
-0.1811331843612E-03 -0.1220816933993E-01
-0.2650729871411E-03 -0.1326241321328E-01
-0.5185651404289E-03 -0.1433337740011E-01
-0.1012581199478E-02 -0.1541724250156E-01
-0.1844081648344E-02 -0.1650511283236E-01
-0.3151774582197E-02 -0.1759091372135E-01
-0.5106349971510E-02 -0.1871537691085E-01
-0.7771543729175E-02 -0.2002613681425E-01
-0.2521758165159E-03 -0.8449079646511E-03
-0.4810551569795E-03 -0.1728756839113E-02
-0.6506103688114E-03 -0.2633445429551E-02
-0.7533359253855E-03 -0.3543979153141E-02
-0.7959783112800E-03 -0.4456169019368E-02
-0.7870446484363E-03 -0.5371998545814E-02
-0.7335903746535E-03 -0.6294960961787E-02
-0.6420223464895E-03 -0.7227986581586E-02
-0.5205516979626E-03 -0.8172094560534E-02
-0.3828339076142E-03 -0.9125225689923E-02
-0.2519272058475E-03 -0.1008405920694E-01
-0.1600377556098E-03 -0.1104887430880E-01
-0.1439427543477E-03 -0.1201955720226E-01
-0.2472650215414E-03 -0.1299380454986E-01
-0.5249354651590E-03 -0.1396777363635E-01
-0.1047391530443E-02 -0.1493776251323E-01
-0.1906054795562E-02 -0.1589930070842E-01
-0.3214585706101E-02 -0.1686054687863E-01
-0.5073736603448E-02 -0.1787619775416E-01
-0.7450344474980E-02 -0.1906319344749E-01
-0.2239708748185E-03 -0.8413045110119E-03
-0.4285265687221E-03 -0.1719719962006E-02
-0.5835136081770E-03 -0.2621460614651E-02
-0.6790346669795E-03 -0.3532904294362E-02
-0.7182396269869E-03 -0.4447730138182E-02
-0.7078047891535E-03 -0.5365179724006E-02
-0.6543095719258E-03 -0.6286418077131E-02
-0.5644830820626E-03 -0.7212207880150E-02
-0.4473533770476E-03 -0.8141477747907E-02
-0.3173299908014E-03 -0.9070435793454E-02
-0.1973646161682E-03 -0.9994607323065E-02
-0.1187760477593E-03 -0.1091327006904E-01
-0.1180119522260E-03 -0.1182535844381E-01
-0.2388217465549E-03 -0.1272825392609E-01
-0.5356096750152E-03 -0.1361887505685E-01
-0.1075843292226E-02 -0.1449607247385E-01
-0.1940841935072E-02 -0.1536242882989E-01
-0.3216261763892E-02 -0.1623784879777E-01
-0.4949352497522E-02 -0.1717978551009E-01
-0.7059268354692E-02 -0.1827498138705E-01
-0.1986155806798E-03 -0.8392576112463E-03
-0.3806582321736E-03 -0.1713523716210E-02
-0.5208083825990E-03 -0.2611987817789E-02
-0.6083221456185E-03 -0.3522508894774E-02
-0.6437793682403E-03 -0.4437589571019E-02
-0.6321895552925E-03 -0.5354258578075E-02
-0.5795736708612E-03 -0.6271498679150E-02
-0.4928416913273E-03 -0.7188075375821E-02
-0.3815669557663E-03 -0.8101174694820E-02
-0.2605438899497E-03 -0.9005741715684E-02
-0.1523311007186E-03 -0.9896570956870E-02
-0.8715878380528E-04 -0.1077227081672E-01
-0.1006834029009E-03 -0.1163138089330E-01
-0.2358983408127E-03 -0.1247180265466E-01
-0.5453255693814E-03 -0.1329238028150E-01
-0.1091370425413E-02 -0.1409590394533E-01
-0.1942861518886E-02 -0.1489216522299E-01
-0.3159517351460E-02 -0.1570870430777E-01
-0.4751682473962E-02 -0.1659956960096E-01
-0.6619999146267E-02 -0.1762609511749E-01
-0.1755376357248E-03 -0.8381308059735E-03
-0.3367520528949E-03 -0.1709128297218E-02
-0.4622589225090E-03 -0.2604231672778E-02
-0.5413550095801E-03 -0.3512612780933E-02
-0.5729029996578E-03 -0.4426153672579E-02
-0.5605160624552E-03 -0.5340157374438E-02
-0.5096262442459E-03 -0.6251681178600E-02
-0.4271644489132E-03 -0.7157724063855E-02
-0.3229687073293E-03 -0.8054045656887E-02
-0.2118719138080E-03 -0.8934701599738E-02
-0.1157525057256E-03 -0.9794089937114E-02
-0.6350581165281E-04 -0.1063044926109E-01
-0.8951236610006E-04 -0.1144241616860E-01
-0.2351678105283E-03 -0.1222907840057E-01
-0.5499168081142E-03 -0.1299195296573E-01
-0.1089675653688E-02 -0.1373820904420E-01
-0.1910302491831E-02 -0.1448372888985E-01
-0.3049949206758E-02 -0.1526002504762E-01
-0.4495456685583E-02 -0.1611506235184E-01
-0.6145605361516E-02 -0.1709130538009E-01
-0.1543406335051E-03 -0.8375368976813E-03
-0.2962490190971E-03 -0.1705867472914E-02
-0.4075700796865E-03 -0.2597645438593E-02
-0.4781386729780E-03 -0.3503109989833E-02
-0.5057605257337E-03 -0.4413829858338E-02
-0.4929453408653E-03 -0.5323785488551E-02
-0.4445415392464E-03 -0.6228404131857E-02
-0.3673437084908E-03 -0.7123175083967E-02
-0.2711824398422E-03 -0.8002714935590E-02
-0.1706054381115E-03 -0.8860489527835E-02
-0.8652525285782E-04 -0.9690764607485E-02
-0.4622955473054E-04 -0.1049166491253E-01
-0.8234273684151E-04 -0.1126231917862E-01
-0.2339094842248E-03 -0.1200346361336E-01
-0.5463686391409E-03 -0.1271962993716E-01
-0.1068434404828E-02 -0.1342215641083E-01
-0.1843814068552E-02 -0.1413148915576E-01
-0.2893990948945E-02 -0.1488048518225E-01
-0.4192298093725E-02 -0.1571029371346E-01
-0.5643327582360E-02 -0.1665043619705E-01
-0.1347413602329E-03 -0.8371988845938E-03
-0.2587483497136E-03 -0.1703246549986E-02
-0.3565497044558E-03 -0.2591780303387E-02
-0.4187760683638E-03 -0.3493867122530E-02
-0.4426532555710E-03 -0.4400926527278E-02
-0.4298482975154E-03 -0.5305940574597E-02
-0.3846415854333E-03 -0.6203009090858E-02
-0.3135389720296E-03 -0.7086384615668E-02
-0.2261031714693E-03 -0.7949807497156E-02
-0.1362946233435E-03 -0.8786407019897E-02
-0.6378895067034E-04 -0.9590530781973E-02
-0.3400612406325E-04 -0.1036040303523E-01
-0.7739807949848E-04 -0.1109592590344E-01
-0.2300837481976E-03 -0.1179971852163E-01
-0.5329583967488E-03 -0.1247929931031E-01
-0.1027557092910E-02 -0.1314955616155E-01
-0.1747150667452E-02 -0.1383399333084E-01
-0.2701331720525E-02 -0.1456512792914E-01
-0.3856977241221E-02 -0.1537787765581E-01
-0.5128060273799E-02 -0.1629187890397E-01
-0.1165058249127E-03 -0.8370229131934E-03
-0.2238051859195E-03 -0.1701099687285E-02
-0.3087272113324E-03 -0.2586552338604E-02
-0.3628438994315E-03 -0.3485069698049E-02
-0.3831565745415E-03 -0.4388003844593E-02
-0.3707180734705E-03 -0.5287582571687E-02
-0.3292700047536E-03 -0.6176839797133E-02
-0.2649023694882E-03 -0.7049027429731E-02
-0.1866832096842E-03 -0.7897219352075E-02
-0.1077170615307E-03 -0.8714387171225E-02
-0.4618553107000E-04 -0.9495100820734E-02
-0.2537750313201E-04 -0.1023782702010E-01
-0.7318406393401E-04 -0.1094340820635E-01
-0.2223251209316E-03 -0.1161641978908E-01
-0.5088227874519E-03 -0.1226716481778E-01
-0.9673381701217E-03 -0.1291341399084E-01
-0.1622447750358E-02 -0.1358057067409E-01
-0.2475598233401E-02 -0.1429992154277E-01
-0.3491725146419E-02 -0.1510087168823E-01
-0.4595785572115E-02 -0.1599610808398E-01
-0.9944477565389E-04 -0.8369246627681E-03
-0.1910825387523E-03 -0.1699278738517E-02
-0.2637677869310E-03 -0.2581860942417E-02
-0.3100874261459E-03 -0.3476816247086E-02
-0.3270712565988E-03 -0.4375466812039E-02
-0.3153419449754E-03 -0.5269472683431E-02
-0.2781304008389E-03 -0.6151028625168E-02
-0.2210003085477E-03 -0.7012596707673E-02
-0.1523234252342E-03 -0.7846760823824E-02
-0.8410604637597E-04 -0.8646468282691E-02
-0.3279782747709E-04 -0.9406603548650E-02
-0.1931200998274E-04 -0.1012596842879E-01
-0.6864760323714E-04 -0.1080641779710E-01
-0.2097830463165E-03 -0.1145442264256E-01