<VTKFile type="UnstructuredGrid" version="1,0" byte_order="LittleEndian">
<UnstructuredGrid>
<Piece NumberOfPoints="5802" NumberOfCells="5680">
<Points>
<DataArray type="Float64" NumberOfComponents="3" format="ascii">
-0.1100000000000E+01 -0.4304044648606E+01  0.0000000000000E+00
 0.0000000000000E+00 -0.4304044648606E+01  0.0000000000000E+00
 0.1100000000000E+01 -0.4304044648606E+01  0.0000000000000E+00
-0.1426338184892E+01 -0.1495137730994E+01  0.0000000000000E+00
-0.7131690856113E+00 -0.1351817918288E+01  0.0000000000000E+00
 0.7131690992823E+00 -0.1351817920119E+01  0.0000000000000E+00
 0.1426338184892E+01 -0.1495137730994E+01  0.0000000000000E+00
-0.1297471036855E+01  0.8924645033579E+00  0.0000000000000E+00
 0.1297471037589E+01  0.8924645030013E+00  0.0000000000000E+00
-0.7500000000000E+00  0.3449934570704E+00  0.0000000000000E+00
 0.7500000000000E+00  0.3449934570704E+00  0.0000000000000E+00
-0.1072500000000E+01 -0.4304044648606E+01  0.0000000000000E+00
-0.1045000000000E+01 -0.4304044648606E+01  0.0000000000000E+00
-0.1017500000000E+01 -0.4304044648606E+01  0.0000000000000E+00
-0.9900000000000E+00 -0.4304044648606E+01  0.0000000000000E+00
-0.9625000000000E+00 -0.4304044648606E+01  0.0000000000000E+00
-0.9350000000000E+00 -0.4304044648606E+01  0.0000000000000E+00
-0.9075000000000E+00 -0.4304044648606E+01  0.0000000000000E+00
-0.8800000000000E+00 -0.4304044648606E+01  0.0000000000000E+00
-0.8525000000000E+00 -0.4304044648606E+01  0.0000000000000E+00
-0.8250000000000E+00 -0.4304044648606E+01  0.0000000000000E+00
-0.7975000000000E+00 -0.4304044648606E+01  0.0000000000000E+00
-0.7700000000000E+00 -0.4304044648606E+01  0.0000000000000E+00
-0.7425000000000E+00 -0.4304044648606E+01  0.0000000000000E+00
-0.7150000000000E+00 -0.4304044648606E+01  0.0000000000000E+00
-0.6875000000000E+00 -0.4304044648606E+01  0.0000000000000E+00
-0.6600000000000E+00 -0.4304044648606E+01  0.0000000000000E+00
-0.6325000000000E+00 -0.4304044648606E+01  0.0000000000000E+00
-0.6050000000000E+00 -0.4304044648606E+01  0.0000000000000E+00
-0.5775000000000E+00 -0.4304044648606E+01  0.0000000000000E+00
-0.5500000000000E+00 -0.4304044648606E+01  0.0000000000000E+00
-0.5225000000000E+00 -0.4304044648606E+01  0.0000000000000E+00
-0.4950000000000E+00 -0.4304044648606E+01  0.0000000000000E+00
-0.4675000000000E+00 -0.4304044648606E+01  0.0000000000000E+00
-0.4400000000000E+00 -0.4304044648606E+01  0.0000000000000E+00
-0.4125000000000E+00 -0.4304044648606E+01  0.0000000000000E+00
-0.3850000000000E+00 -0.4304044648606E+01  0.0000000000000E+00
-0.3575000000000E+00 -0.4304044648606E+01  0.0000000000000E+00
-0.3300000000000E+00 -0.4304044648606E+01  0.0000000000000E+00
-0.3025000000000E+00 -0.4304044648606E+01  0.0000000000000E+00
-0.2750000000000E+00 -0.4304044648606E+01  0.0000000000000E+00
-0.2475000000000E+00 -0.4304044648606E+01  0.0000000000000E+00
-0.2200000000000E+00 -0.4304044648606E+01  0.0000000000000E+00
-0.1925000000000E+00 -0.4304044648606E+01  0.0000000000000E+00
-0.1650000000000E+00 -0.4304044648606E+01  0.0000000000000E+00
-0.1375000000000E+00 -0.4304044648606E+01  0.0000000000000E+00
-0.1100000000000E+00 -0.4304044648606E+01  0.0000000000000E+00
-0.8250000000000E-01 -0.4304044648606E+01  0.0000000000000E+00
-0.5500000000000E-01 -0.4304044648606E+01  0.0000000000000E+00
-0.2750000000000E-01 -0.4304044648606E+01  0.0000000000000E+00
 0.2750000000000E-01 -0.4304044648606E+01  0.0000000000000E+00
 0.5500000000000E-01 -0.4304044648606E+01  0.0000000000000E+00
 0.8250000000000E-01 -0.4304044648606E+01  0.0000000000000E+00
 0.1100000000000E+00 -0.4304044648606E+01  0.0000000000000E+00
 0.1375000000000E+00 -0.4304044648606E+01  0.0000000000000E+00
 0.1650000000000E+00 -0.4304044648606E+01  0.0000000000000E+00
 0.1925000000000E+00 -0.4304044648606E+01  0.0000000000000E+00
 0.2200000000000E+00 -0.4304044648606E+01  0.0000000000000E+00
 0.2475000000000E+00 -0.4304044648606E+01  0.0000000000000E+00
 0.2750000000000E+00 -0.4304044648606E+01  0.0000000000000E+00
 0.3025000000000E+00 -0.4304044648606E+01  0.0000000000000E+00
 0.3300000000000E+00 -0.4304044648606E+01  0.0000000000000E+00
 0.3575000000000E+00 -0.4304044648606E+01  0.0000000000000E+00
 0.3850000000000E+00 -0.4304044648606E+01  0.0000000000000E+00
 0.4125000000000E+00 -0.4304044648606E+01  0.0000000000000E+00
 0.4400000000000E+00 -0.4304044648606E+01  0.0000000000000E+00
 0.4675000000000E+00 -0.4304044648606E+01  0.0000000000000E+00
 0.4950000000000E+00 -0.4304044648606E+01  0.0000000000000E+00
 0.5225000000000E+00 -0.4304044648606E+01  0.0000000000000E+00
 0.5500000000000E+00 -0.4304044648606E+01  0.0000000000000E+00
 0.5775000000000E+00 -0.4304044648606E+01  0.0000000000000E+00
 0.6050000000000E+00 -0.4304044648606E+01  0.0000000000000E+00
 0.6325000000000E+00 -0.4304044648606E+01  0.0000000000000E+00
 0.6600000000000E+00 -0.4304044648606E+01  0.0000000000000E+00
 0.6875000000000E+00 -0.4304044648606E+01  0.0000000000000E+00
 0.7150000000000E+00 -0.4304044648606E+01  0.0000000000000E+00
 0.7425000000000E+00 -0.4304044648606E+01  0.0000000000000E+00
 0.7700000000000E+00 -0.4304044648606E+01  0.0000000000000E+00
 0.7975000000000E+00 -0.4304044648606E+01  0.0000000000000E+00
 0.8250000000000E+00 -0.4304044648606E+01  0.0000000000000E+00
 0.8525000000000E+00 -0.4304044648606E+01  0.0000000000000E+00
 0.8800000000000E+00 -0.4304044648606E+01  0.0000000000000E+00
 0.9075000000000E+00 -0.4304044648606E+01  0.0000000000000E+00
 0.9350000000000E+00 -0.4304044648606E+01  0.0000000000000E+00
 0.9625000000000E+00 -0.4304044648606E+01  0.0000000000000E+00
 0.9900000000000E+00 -0.4304044648606E+01  0.0000000000000E+00
 0.1017500000000E+01 -0.4304044648606E+01  0.0000000000000E+00
 0.1045000000000E+01 -0.4304044648606E+01  0.0000000000000E+00
 0.1072500000000E+01 -0.4304044648606E+01  0.0000000000000E+00
-0.1391152984612E+01 -0.1485826169004E+01  0.0000000000000E+00
-0.1355910848380E+01 -0.1476732672072E+01  0.0000000000000E+00
-0.1320612835817E+01 -0.1467858633912E+01  0.0000000000000E+00
-0.1285259981017E+01 -0.1459205415754E+01  0.0000000000000E+00
-0.1249853511796E+01 -0.1450774398559E+01  0.0000000000000E+00
-0.1214394584761E+01 -0.1442566916018E+01  0.0000000000000E+00
-0.1178884329493E+01 -0.1434584266595E+01  0.0000000000000E+00
-0.1143323993112E+01 -0.1426827745365E+01  0.0000000000000E+00
-0.1107714835036E+01 -0.1419298618073E+01  0.0000000000000E+00
-0.1072058114862E+01 -0.1411998118171E+01  0.0000000000000E+00
-0.1036355114016E+01 -0.1404927450906E+01  0.0000000000000E+00
-0.1000607103274E+01 -0.1398087786375E+01  0.0000000000000E+00
-0.9648154637952E+00 -0.1391480281711E+01  0.0000000000000E+00
-0.9289815514207E+00 -0.1385106053576E+01  0.0000000000000E+00
-0.8931067449032E+00 -0.1378966186997E+01  0.0000000000000E+00
-0.8571924453329E+00 -0.1373061734396E+01  0.0000000000000E+00
-0.8212400755349E+00 -0.1367393714636E+01  0.0000000000000E+00
-0.7852510794390E+00 -0.1361963112090E+01  0.0000000000000E+00
-0.7492269214199E+00 -0.1356770875739E+01  0.0000000000000E+00
-0.6777056485815E+00 -0.1347184849055E+01  0.0000000000000E+00
-0.6422126030433E+00 -0.1342784468384E+01  0.0000000000000E+00
-0.6066914054888E+00 -0.1338617534531E+01  0.0000000000000E+00
-0.5711435255488E+00 -0.1334684768748E+01  0.0000000000000E+00
-0.5355704233029E+00 -0.1330986852489E+01  0.0000000000000E+00
-0.4999736369017E+00 -0.1327524435880E+01  0.0000000000000E+00
-0.4643546817971E+00 -0.1324298126257E+01  0.0000000000000E+00
-0.4287150862649E+00 -0.1321308491716E+01  0.0000000000000E+00
-0.3930563807228E+00 -0.1318556059836E+01  0.0000000000000E+00
-0.3573801183139E+00 -0.1316041318931E+01  0.0000000000000E+00
-0.3216878730590E+00 -0.1313764717124E+01  0.0000000000000E+00
-0.2859812157621E+00 -0.1311726660302E+01  0.0000000000000E+00
-0.2502617257092E+00 -0.1309927512732E+01  0.0000000000000E+00
-0.2145309892672E+00 -0.1308367596678E+01  0.0000000000000E+00
-0.1787905926666E+00 -0.1307047191884E+01  0.0000000000000E+00
-0.1430421463503E+00 -0.1305966536203E+01  0.0000000000000E+00
-0.1072872541886E+00 -0.1305125824139E+01  0.0000000000000E+00
-0.7152752388590E-01 -0.1304525207180E+01  0.0000000000000E+00
-0.3576456602431E-01 -0.1304164793652E+01  0.0000000000000E+00
 0.6896563736758E-08 -0.1304044648606E+01  0.0000000000000E+00
 0.3576457981713E-01 -0.1304164793745E+01  0.0000000000000E+00
 0.7152753767778E-01 -0.1304525207365E+01  0.0000000000000E+00
 0.1072872679789E+00 -0.1305125824417E+01  0.0000000000000E+00
 0.1430421601384E+00 -0.1305966536574E+01  0.0000000000000E+00
 0.1787906064519E+00 -0.1307047192347E+01  0.0000000000000E+00
 0.2145310030492E+00 -0.1308367597233E+01  0.0000000000000E+00
 0.2502617394871E+00 -0.1309927513380E+01  0.0000000000000E+00
 0.2859812295354E+00 -0.1311726661042E+01  0.0000000000000E+00
 0.3216878868270E+00 -0.1313764717956E+01  0.0000000000000E+00
 0.3573801320760E+00 -0.1316041319855E+01  0.0000000000000E+00
 0.3930563944785E+00 -0.1318556060852E+01  0.0000000000000E+00
 0.4287151000135E+00 -0.1321308492824E+01  0.0000000000000E+00
 0.4643546955381E+00 -0.1324298127456E+01  0.0000000000000E+00
 0.4999736506343E+00 -0.1327524437170E+01  0.0000000000000E+00
 0.5355704370268E+00 -0.1330986853870E+01  0.0000000000000E+00
 0.5711435392633E+00 -0.1334684770220E+01  0.0000000000000E+00
 0.6066914191932E+00 -0.1338617536093E+01  0.0000000000000E+00
 0.6422126167371E+00 -0.1342784470036E+01  0.0000000000000E+00
 0.6777056622642E+00 -0.1347184850797E+01  0.0000000000000E+00
 0.7492269343955E+00 -0.1356770877566E+01  0.0000000000000E+00
 0.7852510917199E+00 -0.1361963113902E+01  0.0000000000000E+00
 0.8212400871220E+00 -0.1367393716423E+01  0.0000000000000E+00
 0.8571924562271E+00 -0.1373061736151E+01  0.0000000000000E+00
 0.8931067551055E+00 -0.1378966188709E+01  0.0000000000000E+00
 0.9289815609321E+00 -0.1385106055236E+01  0.0000000000000E+00
 0.9648154726170E+00 -0.1391480283310E+01  0.0000000000000E+00
 0.1000607111408E+01 -0.1398087787904E+01  0.0000000000000E+00
[...]
<PointData Vectors="'U'">
<DataArray type="Float64" Name="U" NumberOfComponents="2" ComponentName0="U1" ComponentName1="U2" format="ascii">
-0.2032650965243E-37 -0.5199310472849E-37
-0.2973144639564E-37 -0.3278972484989E-37
-0.2000212004189E-37  0.5117336425622E-37
-0.7705937508065E-02 -0.3525395152752E-01
 0.1752619607516E-03 -0.1599694923044E-01
 0.1378922091915E-01 -0.1944632734749E-01
 0.2126446443320E-01 -0.4404306277063E-01
-0.2020940036684E+00 -0.3568748241052E+00
 0.3936487282534E+00 -0.3408109126925E+00
-0.2721523495768E+00 -0.5553059087166E+00
 0.4399678834367E+00 -0.4942599626126E+00
-0.1561616599700E-37 -0.8128276328543E-37
-0.1691382523142E-37 -0.7279086984752E-37
-0.1704281275386E-37 -0.6815438671328E-37
-0.1705769795096E-37 -0.6502306519073E-37
-0.1712006320475E-37 -0.6265707863793E-37
-0.1724736301649E-37 -0.6074084116133E-37
-0.1743126716073E-37 -0.5911340782288E-37
-0.1766046922918E-37 -0.5768307409006E-37
-0.1792519449825E-37 -0.5639353539428E-37
-0.1821773943773E-37 -0.5520830849446E-37
-0.1853217514847E-37 -0.5410276850471E-37
-0.1886394966350E-37 -0.5305975265201E-37
-0.1920955007872E-37 -0.5206698761652E-37
-0.1956624429118E-37 -0.5111550654041E-37
-0.1993188924036E-37 -0.5019863989810E-37
-0.2030478936219E-37 -0.4931134877628E-37
-0.2068359162735E-37 -0.4844977183774E-37
-0.2106720683589E-37 -0.4761090940161E-37
-0.2145474850064E-37 -0.4679239633310E-37
-0.2184561395840E-37 -0.4599242484334E-37
-0.2223774774202E-37 -0.4522323882683E-37
-0.2263169628550E-37 -0.4447063051521E-37
-0.2302718317252E-37 -0.4373343518806E-37
-0.2342385089212E-37 -0.4301069460906E-37
-0.2382138552761E-37 -0.4230155608176E-37
-0.2421950741978E-37 -0.4160524017145E-37
-0.2461796313503E-37 -0.4092101250419E-37
-0.2501651862162E-37 -0.4024816445405E-37
-0.2541495377349E-37 -0.3958599697353E-37
-0.2581305801810E-37 -0.3893380856164E-37
-0.2621062686521E-37 -0.3829088530591E-37
-0.2660745929248E-37 -0.3765649239213E-37
-0.2700335567238E-37 -0.3702986829818E-37
-0.2739811626802E-37 -0.3641022003816E-37
-0.2779154021733E-37 -0.3579671937066E-37
-0.2818342481590E-37 -0.3518850090306E-37
-0.2857356532109E-37 -0.3458465930166E-37
-0.2896175495250E-37 -0.3398424834905E-37
-0.2934778520078E-37 -0.3338628017019E-37
-0.3011252850587E-37 -0.3219351040111E-37
-0.3049082217302E-37 -0.3159652283565E-37
-0.3086611995901E-37 -0.3099760635328E-37
-0.3123821778869E-37 -0.3039556368245E-37
-0.3160691659915E-37 -0.2978915632927E-37
-0.3197202419190E-37 -0.2917710470380E-37
-0.3233335724335E-37 -0.2855808845742E-37
-0.3269074367494E-37 -0.2793074498463E-37
-0.3304402504690E-37 -0.2729366953307E-37
-0.3339305928219E-37 -0.2664541363062E-37
-0.3373772361710E-37 -0.2598448304847E-37
-0.3407791775341E-37 -0.2530933546076E-37
-0.3441356742132E-37 -0.2461837566721E-37
-0.3474462816599E-37 -0.2390995043073E-37
-0.3507108935326E-37 -0.2318234278105E-37
-0.3539297863580E-37 -0.2243376329347E-37
-0.3571036659237E-37 -0.2166234126420E-37
-0.3602337252220E-37 -0.2086610781734E-37
-0.3633217146546E-37 -0.2004298617606E-37
-0.3663688328177E-37 -0.1919068957484E-37
-0.3694075867391E-37 -0.1827794600973E-37
-0.3724157323003E-37 -0.1733027659052E-37
-0.3753969482139E-37 -0.1634494015673E-37
-0.3783567423361E-37 -0.1531887323272E-37
-0.3813014807323E-37 -0.1424869119080E-37
-0.3842382918203E-37 -0.1313063495862E-37
-0.3871748464342E-37 -0.1196051243914E-37
-0.3901188854585E-37 -0.1073364497982E-37
-0.3930772881656E-37 -0.9444840102556E-38
-0.3960543161939E-37 -0.8088441637974E-38
-0.3990484273009E-37 -0.6658557462065E-38
-0.4020466283425E-37 -0.5149755351255E-38
-0.4050150471607E-37 -0.3558868418097E-38
-0.4078852135865E-37 -0.1889668888540E-38
-0.4105434221561E-37 -0.1654115486061E-39
-0.4128746393491E-37  0.1534749782981E-38
-0.4151517842202E-37  0.2956036073383E-38
-0.4205194158631E-37  0.3193960920901E-38
-0.4523472672221E-37 -0.1773424121013E-38
-0.7430288994566E-02 -0.3018617945001E-01
-0.6886253419675E-02 -0.2722013816697E-01
-0.6336872924255E-02 -0.2516960188572E-01
-0.5834256745624E-02 -0.2362813756983E-01
-0.5374125518141E-02 -0.2240695647127E-01
-0.4945108925846E-02 -0.2140558543510E-01
-0.4537675451255E-02 -0.2056545473086E-01
-0.4145202869923E-02 -0.1984969336613E-01
-0.3763304256424E-02 -0.1923352521866E-01
-0.3389079576499E-02 -0.1869937370280E-01
-0.3020574661188E-02 -0.1823420955422E-01
-0.2656433987730E-02 -0.1782802818185E-01
-0.2295688428630E-02 -0.1747292994444E-01
-0.1937624275001E-02 -0.1716253412401E-01
-0.1581705919164E-02 -0.1689159359439E-01
-0.1227531500754E-02 -0.1665573141782E-01
-0.8748138860390E-03 -0.1645125657581E-01
-0.5233888364511E-03 -0.1627503179233E-01
-0.1732642508463E-03 -0.1612436705480E-01
 0.5173600129649E-03 -0.1589256972947E-01
 0.8599223282150E-03 -0.1580554966372E-01
 0.1202633286794E-02 -0.1573461275647E-01
 0.1545483603514E-02 -0.1567848432061E-01
 0.1888489759272E-02 -0.1563593687407E-01
 0.2231678345481E-02 -0.1560585009055E-01
 0.2575073496553E-02 -0.1558721163231E-01
 0.2918691640440E-02 -0.1557911282940E-01
 0.3262539325424E-02 -0.1558074220647E-01
 0.3606612209518E-02 -0.1559137919736E-01
 0.3950895041383E-02 -0.1561038852101E-01
 0.4295362290700E-02 -0.1563721536049E-01
 0.4639978710477E-02 -0.1567138128762E-01
 0.4984700208185E-02 -0.1571248085758E-01
 0.5329474901731E-02 -0.1576017879502E-01
 0.5674243960143E-02 -0.1581420764469E-01
 0.6018943048375E-02 -0.1587436593308E-01
 0.6363503419825E-02 -0.1594051666226E-01
 0.6707853150859E-02 -0.1601258615628E-01
 0.7051918392101E-02 -0.1609056321462E-01
 0.7395624607310E-02 -0.1617449854726E-01
 0.7738897833212E-02 -0.1626450449052E-01
 0.8081665916812E-02 -0.1636075499725E-01
 0.8423859687496E-02 -0.1646348590043E-01
 0.8765414098617E-02 -0.1657299548004E-01
 0.9106269311668E-02 -0.1668964535851E-01
 0.9446371602944E-02 -0.1681386172481E-01
 0.9785674583836E-02 -0.1694613711831E-01
 0.1012413979627E-01 -0.1708703251484E-01
 0.1046173749974E-01 -0.1723718007749E-01
 0.1079844726271E-01 -0.1739728654032E-01
 0.1113425824969E-01 -0.1756813728364E-01
 0.1146916958690E-01 -0.1775060143987E-01
 0.1180319012267E-01 -0.1794563786200E-01
 0.1213633727696E-01 -0.1815430189655E-01
 0.1246863480145E-01 -0.1837775296539E-01
 0.1280010754370E-01 -0.1861726062897E-01
 0.1313076798063E-01 -0.1887420879908E-01
 0.1346059881764E-01 -0.1915004120871E-01
 0.1412339808975E-01 -0.1977204720248E-01
 0.1445816392061E-01 -0.2012409257729E-01
 0.1479332481335E-01 -0.2050501287929E-01
 0.1512889425298E-01 -0.2091769078305E-01
 0.1546503425672E-01 -0.2136546539918E-01
 0.1580202070055E-01 -0.2185224461045E-01
 0.1614024345436E-01 -0.2238264725412E-01
 0.1648023130150E-01 -0.2296219942103E-01
 0.1682270302745E-01 -0.2359761441916E-01
 0.1716865421896E-01 -0.2429720208442E-01
 0.1751950261930E-01 -0.2507149325292E-01
 0.1787732337606E-01 -0.2593421949416E-01
 0.1824523300758E-01 -0.2690393912956E-01
 0.1862798876280E-01 -0.2800687356212E-01
 0.1903282413099E-01 -0.2928215038946E-01
 0.1947023045202E-01 -0.3079210348487E-01
 0.1995291796957E-01 -0.3264396441072E-01
 0.2048643785339E-01 -0.3503973384934E-01
 0.2101668053665E-01 -0.3841517533548E-01
-0.1242630663738E+00 -0.1320425455378E+00
-0.1911121042880E+00 -0.1997072447715E+00
-0.2467050307416E+00 -0.2405404701046E+00
-0.2922735508118E+00 -0.2642477058226E+00
-0.3291507561407E+00 -0.2764018592434E+00
-0.3580896647688E+00 -0.2810561800010E+00
-0.3797563516501E+00 -0.2805204128394E+00
-0.3946400506890E+00 -0.2762901366174E+00
-0.4030910522101E+00 -0.2696531612470E+00
-0.4053985939940E+00 -0.2617034120910E+00
-0.4019042359563E+00 -0.2535082059042E+00
-0.3930159164069E+00 -0.2461385012753E+00
-0.3795163290262E+00 -0.2414062356709E+00
-0.3627759983889E+00 -0.2409523468595E+00
-0.3434042846855E+00 -0.2449486139156E+00
-0.3213808988650E+00 -0.2537850612407E+00
-0.2963047820826E+00 -0.2679975934421E+00
-0.2680066729039E+00 -0.2886911809751E+00
-0.2366236089911E+00 -0.3175106171492E+00
-0.1854975956244E+00 -0.3794263827104E+00
-0.1679996632968E+00 -0.4057928086889E+00
-0.1494661643631E+00 -0.4362519570548E+00
-0.1296607712571E+00 -0.4714922885558E+00
-0.1082400450054E+00 -0.5126671868864E+00
-0.8463802588750E-01 -0.5618662333575E+00
-0.5699362852686E-01 -0.6233108036859E+00
-0.2576705774432E-01 -0.6972133644705E+00
 0.5096922975195E-02 -0.7776149263744E+00
 0.3286701121547E-01 -0.8592634201246E+00
 0.5645638969979E-01 -0.9387406583966E+00
 0.7556625368828E-01 -0.1013479474242E+01
 0.9029635299073E-01 -0.1081477127707E+01
 0.1009683266103E+00 -0.1141146572726E+01
 0.1080375634612E+00 -0.1191229110743E+01
 0.1120484255411E+00 -0.1230745016375E+01
 0.1136103951459E+00 -0.1258959559039E+01
 0.1133868867044E+00 -0.1275360664145E+01
 0.1120930648199E+00 -0.1279646395055E+01
 0.1105011950269E+00 -0.1271716271192E+01
 0.1094354918621E+00 -0.1251682356719E+01
 0.1096753033516E+00 -0.1219924681894E+01
 0.1119092102625E+00 -0.1177043147818E+01
 0.1167417140196E+00 -0.1123863499984E+01
 0.1246901492597E+00 -0.1061466945637E+01
 0.1361689772102E+00 -0.9912315483950E+00
 0.1514543477012E+00 -0.9149026928771E+00
 0.1706101985968E+00 -0.8347136391001E+00
 0.1933216487895E+00 -0.7536151676693E+00
 0.2184368178332E+00 -0.6758207577321E+00
 0.2431671795805E+00 -0.6084867127129E+00
 0.2656540126044E+00 -0.5549386457561E+00
 0.2863251849075E+00 -0.5116038241928E+00
 0.3053090263085E+00 -0.4750535199047E+00
 0.3226899592568E+00 -0.4436666305113E+00
 0.3387678920374E+00 -0.4165394688500E+00
 0.3537684194076E+00 -0.3930534897649E+00
 0.3678530568388E+00 -0.3727681934955E+00
 0.3811316547290E+00 -0.3553832616867E+00
 0.4191115793898E+00 -0.3163608504194E+00
 0.4415672553865E+00 -0.2999319200077E+00
 0.4609134416989E+00 -0.2898216335330E+00
 0.4769090427583E+00 -0.2847006591663E+00
 0.4895468716998E+00 -0.2834882276927E+00
 0.4990220038809E+00 -0.2853538191489E+00
 0.5054042157465E+00 -0.2895785108652E+00
 0.5084075125683E+00 -0.2956766223949E+00
 0.5070977139407E+00 -0.3029432894115E+00
 0.5007696539155E+00 -0.3105067100868E+00
 0.4890343723579E+00 -0.3171608347825E+00
 0.4715189539448E+00 -0.3219798239139E+00
 0.4478998605256E+00 -0.3239258487216E+00
 0.4178054967220E+00 -0.3216955436510E+00
 0.3807081343445E+00 -0.3137948027456E+00
 0.3359331101063E+00 -0.2978234137127E+00
 0.2827721607166E+00 -0.2695224887565E+00
 0.2199144734041E+00 -0.2231239983246E+00
 0.1462486959824E+00 -0.1485828099449E+00
-0.2710695852718E-03 -0.4772333032537E-03
-0.4246392830819E-03 -0.8166936146062E-03
-0.5245408196854E-03 -0.1134165140322E-02
-0.5827163478349E-03 -0.1440545061032E-02
-0.6074705503430E-03 -0.1742817749288E-02
-0.6033064179064E-03 -0.2044740684512E-02
-0.5736041490963E-03 -0.2348705813498E-02
-0.5208347541889E-03 -0.2656429804849E-02
-0.4469513146740E-03 -0.2969255999322E-02
-0.3535328194369E-03 -0.3288333454915E-02
-0.2418951009004E-03 -0.3614725324804E-02
-0.1131609291176E-03 -0.3949483335149E-02
 0.3169130619603E-04 -0.4293716271142E-02
 0.1917894506809E-03 -0.4648647567223E-02
 0.3663260038814E-03 -0.5015655723438E-02
 0.5545613231782E-03 -0.5396413723670E-02
 0.7557807613935E-03 -0.5792958411604E-02
 0.9693051293608E-03 -0.6207938478011E-02
 0.1194467287791E-02 -0.6645271274586E-02
 0.1429712556404E-02 -0.7111206021690E-02
 0.1671188209851E-02 -0.7610589426062E-02
 0.1913900016025E-02 -0.8144292025856E-02
 0.2153102423943E-02 -0.8711124343250E-02
 0.2384537674873E-02 -0.9310023255140E-02
 0.2604134325251E-02 -0.9941009495862E-02
 0.2807633689845E-02 -0.1060536852568E-01
 0.2990284569798E-02 -0.1130553984123E-01
 0.3146601896923E-02 -0.1204499392052E-01
 0.3270087694775E-02 -0.1282811141673E-01
 0.3352949435830E-02 -0.1365962599997E-01
 0.3386400012478E-02 -0.1454407278253E-01
 0.3361219055069E-02 -0.1548758375080E-01
 0.3266857199864E-02 -0.1650023129583E-01
 0.3090124721497E-02 -0.1759669695885E-01
 0.2813647172276E-02 -0.1879847709577E-01
 0.2413702452356E-02 -0.2013821997477E-01
 0.1852838804802E-02 -0.2166966606982E-01
 0.1076828621515E-02 -0.2348724299819E-01
-0.6664309162943E-04 -0.2578545387206E-01
-0.1696180648132E-02 -0.2917148253497E-01
 0.1448196463809E-01 -0.3734905107203E-01
 0.1238611410848E-01 -0.3356776950254E-01
 0.1079823454462E-01 -0.3096497933865E-01
 0.9595120916567E-02 -0.2888663914920E-01
 0.8614795537325E-02 -0.2712221135602E-01
 0.7800122225741E-02 -0.2556873327710E-01
 0.7111776711183E-02 -0.2416710637830E-01
 0.6525148279335E-02 -0.2288108689816E-01
 0.6022475201165E-02 -0.2168662985174E-01
 0.5590554318943E-02 -0.2056725690895E-01
 0.5219099116568E-02 -0.1951173909859E-01
 0.4899349721128E-02 -0.1851336761187E-01
 0.4623225754415E-02 -0.1756661847285E-01
 0.4383757529681E-02 -0.1666568185588E-01
 0.4175340150545E-02 -0.1580543651326E-01
 0.3993451514216E-02 -0.1498201470846E-01
 0.3834369233802E-02 -0.1419291260441E-01
 0.3694893089593E-02 -0.1343708526808E-01
 0.3571958272564E-02 -0.1271495195105E-01
 0.3462090895967E-02 -0.1202789710979E-01
 0.3360863712996E-02 -0.1137667327432E-01
 0.3263037140565E-02 -0.1075843142180E-01
 0.3164391369982E-02 -0.1016538050598E-01
 0.3063505850552E-02 -0.9589928456445E-02
 0.2960101081196E-02 -0.9027708611326E-02
 0.2853869373952E-02 -0.8475862223677E-02
 0.2744438917219E-02 -0.7932227640900E-02
 0.2631366097680E-02 -0.7395037633981E-02
 0.2514130421695E-02 -0.6862854238494E-02
 0.2392086983576E-02 -0.6334386173339E-02
 0.2264432820898E-02 -0.5808444910145E-02
 0.2130154279190E-02 -0.5283871423475E-02
 0.1987950767683E-02 -0.4759441551047E-02
 0.1836132874279E-02 -0.4233759059111E-02
 0.1672449514893E-02 -0.3705093096667E-02
 0.1493865381180E-02 -0.3171100229001E-02
 0.1295907283350E-02 -0.2628350295927E-02
 0.1072352805138E-02 -0.2071220623799E-02
 0.8104667123151E-03 -0.1488805697386E-02
 0.4917300928077E-03 -0.8646359716409E-03
-0.2600697968629E+00 -0.5758783927170E+00
-0.2471562981614E+00 -0.5967785892487E+00
-0.2333161839121E+00 -0.6177873785198E+00
-0.2185207804476E+00 -0.6387168781118E+00
-0.2027598118457E+00 -0.6593750518144E+00
-0.1860381673161E+00 -0.6795649606540E+00
-0.1683749023534E+00 -0.6990870925961E+00
-0.1498024937332E+00 -0.7177437629589E+00
-0.1303661949133E+00 -0.7353418345310E+00
-0.1101232999635E+00 -0.7516953790238E+00
-0.8914226795364E-01 -0.7666301274315E+00
-0.6750134304883E-01 -0.7799868889496E+00
-0.4528703787820E-01 -0.7916239202937E+00
-0.2259262178594E-01 -0.8014186226568E+00
 0.4833128721423E-03 -0.8092687964097E+00
 0.2383821230279E-01 -0.8150935991416E+00
 0.4736678815239E-01 -0.8188342167252E+00
 0.7096215571799E-01 -0.8204543164680E+00
 0.9451689788729E-01 -0.8199403065078E+00
 0.1179240857470E+00 -0.8173014113954E+00
 0.1410782872435E+00 -0.8125695625839E+00
 0.1638765806503E+00 -0.8057990368398E+00
 0.1862196084831E+00 -0.7970659268061E+00
 0.2080126917340E+00 -0.7864673781140E+00
 0.2291670148439E+00 -0.7741205725592E+00
 0.2496008818379E+00 -0.7601614142461E+00
 0.2692410281295E+00 -0.7447428867448E+00
 0.2880239456109E+00 -0.7280330315243E+00
 0.3058971888529E+00 -0.7102124537832E+00
 0.3228205218054E+00 -0.6914713562906E+00
 0.3387668115500E+00 -0.6720059628864E+00
 0.3537224857868E+00 -0.6520141445802E+00
 0.3676873230512E+00 -0.6316902268128E+00
 0.3806733164836E+00 -0.6112197742948E+00
 0.3927031451499E+00 -0.5907772837522E+00
 0.4038086891054E+00 -0.5705248165107E+00
 0.4140298327726E+00 -0.5506102975792E+00
 0.4234141385074E+00 -0.5311690615295E+00
 0.4320198965343E+00 -0.5123305390465E+00
-0.2734476818924E+00 -0.5250086959835E+00
-0.2730914385450E+00 -0.4943050538398E+00
-0.2713426147419E+00 -0.4631775361639E+00
-0.2684161521222E+00 -0.4317875072107E+00
-0.2644314485036E+00 -0.4002877455742E+00
-0.2594321258648E+00 -0.3688038915643E+00
-0.2533895111213E+00 -0.3374379587030E+00
-0.2462195076943E+00 -0.3062773556576E+00
-0.2377815243522E+00 -0.2754287753047E+00
-0.2279607265949E+00 -0.2450347173738E+00
-0.2166684032356E+00 -0.2152629665676E+00
-0.2037510418082E+00 -0.1863133215395E+00
-0.1889859738131E+00 -0.1584214563754E+00
-0.1720714912915E+00 -0.1318491721630E+00
-0.1526299021311E+00 -0.1068769369741E+00
-0.1302195164313E+00 -0.8379741284609E-01
-0.1043413223380E+00 -0.6290720010486E-01
-0.7443554179778E-01 -0.4449316186996E-01
-0.3985480986714E-01 -0.2880662783813E-01
 0.4349938087031E+00 -0.4717295880683E+00
 0.4280824548628E+00 -0.4481004891110E+00
 0.4195150619509E+00 -0.4234139098328E+00
 0.4095375661099E+00 -0.3978635602257E+00
 0.3983013720695E+00 -0.3716406583213E+00
 0.3858800193048E+00 -0.3449110409531E+00
 0.3722692536444E+00 -0.3178167612264E+00
 0.3574042537734E+00 -0.2904842155204E+00
 0.3411599204344E+00 -0.2630553173526E+00
 0.3234318716591E+00 -0.2357049563492E+00
 0.3041362309119E+00 -0.2086317684442E+00
 0.2831263953663E+00 -0.1820616155879E+00
 0.2601900440829E+00 -0.1562499362787E+00
 0.2350400377731E+00 -0.1314707613896E+00
 0.2073182401973E+00 -0.1080075425051E+00
 0.1766081709494E+00 -0.8614449242901E-01
 0.1424447795433E+00 -0.6615502944649E-01
 0.1043178399909E+00 -0.4828226983236E-01
 0.6165479762632E-01 -0.3270283989442E-01
-0.2799246609255E+00 -0.5519083251013E+00
-0.2867031137576E+00 -0.5471938650169E+00
-0.2923527867966E+00 -0.5412243767356E+00
-0.2967948900869E+00 -0.5340655801812E+00
-0.2999677116841E+00 -0.5257854505795E+00
-0.3018199146274E+00 -0.5164633773887E+00
-0.3023095290868E+00 -0.5061938964982E+00
-0.3014058714151E+00 -0.4950891951232E+00
-0.2990928541091E+00 -0.4832804805274E+00
-0.2953731140688E+00 -0.4709183233650E+00
-0.2902726019036E+00 -0.4581718231441E+00
-0.2838453116262E+00 -0.4452263374670E+00
-0.2761777015584E+00 -0.4322794276831E+00
-0.2673920841030E+00 -0.4195346270346E+00
-0.2576478608517E+00 -0.4071926862107E+00
-0.2471391105290E+00 -0.3954402619147E+00
-0.2360870187501E+00 -0.3844367530105E+00
-0.2247284282303E+00 -0.3743019220887E+00
-0.2133010810856E+00 -0.3651050278216E+00
 0.4472098129272E+00 -0.4896243061874E+00
 0.4533981184863E+00 -0.4840107879591E+00
 0.4584307119600E+00 -0.4775306676792E+00
 0.4622718230852E+00 -0.4702849243458E+00
 0.4649076607978E+00 -0.4623713029495E+00
 0.4663388132196E+00 -0.4538920145351E+00
 0.4665782469268E+00 -0.4449559596142E+00
 0.4656519206282E+00 -0.4356793232645E+00
 0.4636002108457E+00 -0.4261849160622E+00
 0.4604794081491E+00 -0.4166005264677E+00
 0.4563628075894E+00 -0.4070563798218E+00
 0.4513410486884E+00 -0.3976817958679E+00
 0.4455214162849E+00 -0.3886011870337E+00
 0.4390258818684E+00 -0.3799296442251E+00
 0.4319878186830E+00 -0.3717684997404E+00
 0.4245476624971E+00 -0.3642014139810E+00
 0.4168481658268E+00 -0.3572914863697E+00
 0.4090313719489E+00 -0.3510800656195E+00
 0.4012367881143E+00 -0.3455850565518E+00
-0.2275549733661E-03 -0.4032996782356E-03
-0.3941417515161E-03 -0.7755222464253E-03
-0.4938894316984E-03 -0.1108639512707E-02
-0.5529210231907E-03 -0.1429452934617E-02
-0.5774704244133E-03 -0.1744207884636E-02
-0.5727810662640E-03 -0.2057360682006E-02
-0.5422174627919E-03 -0.2371595927383E-02
-0.4883397403899E-03 -0.2688846340913E-02
-0.4131301803391E-03 -0.3010605469789E-02
-0.3181904856678E-03 -0.3338133647238E-02
-0.2048472263109E-03 -0.3672578643597E-02
-0.7422699219571E-04 -0.4015058123638E-02
 0.7269435282681E-04 -0.4366733192903E-02
 0.2350530949737E-03 -0.4728869185723E-02
 0.4120569418693E-03 -0.5102878347872E-02
 0.6029906246935E-03 -0.5490461211751E-02
 0.8071782009131E-03 -0.5893674363266E-02
 0.1024011552179E-02 -0.6315181970666E-02
 0.1252894075435E-02 -0.6758630825880E-02
 0.1492210851820E-02 -0.7228313456330E-02
 0.1737838261636E-02 -0.7726773846185E-02
 0.1984410333274E-02 -0.8254569450984E-02
 0.2226923542066E-02 -0.8811350432715E-02
 0.2461001486197E-02 -0.9396868528964E-02
 0.2682517089736E-02 -0.1001150939279E-01
 0.2887145317231E-02 -0.1065644866176E-01
 0.3070012440065E-02 -0.1133363613157E-01
 0.3225423316371E-02 -0.1204573781464E-01
 0.3346547968125E-02 -0.1279602016674E-01
 0.3425234054115E-02 -0.1358828218028E-01
 0.3452568137824E-02 -0.1442697766005E-01
 0.3419214183246E-02 -0.1531754598034E-01
 0.3314171072056E-02 -0.1626770563166E-01
 0.3123426670570E-02 -0.1728853199010E-01