<VTKFile type="UnstructuredGrid" version="1,0" byte_order="LittleEndian">
<UnstructuredGrid>
<Piece NumberOfPoints="1502" NumberOfCells="1440">
<Points>
<DataArray type="Float64" NumberOfComponents="3" format="ascii">
-0.1100000000000E+01 -0.4304044648606E+01  0.0000000000000E+00
 0.0000000000000E+00 -0.4304044648606E+01  0.0000000000000E+00
 0.1100000000000E+01 -0.4304044648606E+01  0.0000000000000E+00
-0.1426338184892E+01 -0.1495137730994E+01  0.0000000000000E+00
-0.7131690856113E+00 -0.1351817918288E+01  0.0000000000000E+00
 0.7131690992823E+00 -0.1351817920119E+01  0.0000000000000E+00
 0.1426338184892E+01 -0.1495137730994E+01  0.0000000000000E+00
-0.1297471036855E+01  0.8924645033579E+00  0.0000000000000E+00
 0.1297471037589E+01  0.8924645030013E+00  0.0000000000000E+00
-0.7500000000000E+00  0.3449934570704E+00  0.0000000000000E+00
 0.7500000000000E+00  0.3449934570704E+00  0.0000000000000E+00
-0.1045000000000E+01 -0.4304044648606E+01  0.0000000000000E+00
-0.9900000000000E+00 -0.4304044648606E+01  0.0000000000000E+00
-0.9350000000000E+00 -0.4304044648606E+01  0.0000000000000E+00
-0.8800000000000E+00 -0.4304044648606E+01  0.0000000000000E+00
-0.8250000000000E+00 -0.4304044648606E+01  0.0000000000000E+00
-0.7700000000000E+00 -0.4304044648606E+01  0.0000000000000E+00
-0.7150000000000E+00 -0.4304044648606E+01  0.0000000000000E+00
-0.6600000000000E+00 -0.4304044648606E+01  0.0000000000000E+00
-0.6050000000000E+00 -0.4304044648606E+01  0.0000000000000E+00
-0.5500000000000E+00 -0.4304044648606E+01  0.0000000000000E+00
-0.4950000000000E+00 -0.4304044648606E+01  0.0000000000000E+00
-0.4400000000000E+00 -0.4304044648606E+01  0.0000000000000E+00
-0.3850000000000E+00 -0.4304044648606E+01  0.0000000000000E+00
-0.3300000000000E+00 -0.4304044648606E+01  0.0000000000000E+00
-0.2750000000000E+00 -0.4304044648606E+01  0.0000000000000E+00
-0.2200000000000E+00 -0.4304044648606E+01  0.0000000000000E+00
-0.1650000000000E+00 -0.4304044648606E+01  0.0000000000000E+00
-0.1100000000000E+00 -0.4304044648606E+01  0.0000000000000E+00
-0.5500000000000E-01 -0.4304044648606E+01  0.0000000000000E+00
 0.5500000000000E-01 -0.4304044648606E+01  0.0000000000000E+00
 0.1100000000000E+00 -0.4304044648606E+01  0.0000000000000E+00
 0.1650000000000E+00 -0.4304044648606E+01  0.0000000000000E+00
 0.2200000000000E+00 -0.4304044648606E+01  0.0000000000000E+00
 0.2750000000000E+00 -0.4304044648606E+01  0.0000000000000E+00
 0.3300000000000E+00 -0.4304044648606E+01  0.0000000000000E+00
 0.3850000000000E+00 -0.4304044648606E+01  0.0000000000000E+00
 0.4400000000000E+00 -0.4304044648606E+01  0.0000000000000E+00
 0.4950000000000E+00 -0.4304044648606E+01  0.0000000000000E+00
 0.5500000000000E+00 -0.4304044648606E+01  0.0000000000000E+00
 0.6050000000000E+00 -0.4304044648606E+01  0.0000000000000E+00
 0.6600000000000E+00 -0.4304044648606E+01  0.0000000000000E+00
 0.7150000000000E+00 -0.4304044648606E+01  0.0000000000000E+00
 0.7700000000000E+00 -0.4304044648606E+01  0.0000000000000E+00
 0.8250000000000E+00 -0.4304044648606E+01  0.0000000000000E+00
 0.8800000000000E+00 -0.4304044648606E+01  0.0000000000000E+00
 0.9350000000000E+00 -0.4304044648606E+01  0.0000000000000E+00
 0.9900000000000E+00 -0.4304044648606E+01  0.0000000000000E+00
 0.1045000000000E+01 -0.4304044648606E+01  0.0000000000000E+00
-0.1355910848380E+01 -0.1476732672072E+01  0.0000000000000E+00
-0.1285259981017E+01 -0.1459205415754E+01  0.0000000000000E+00
-0.1214394584761E+01 -0.1442566916018E+01  0.0000000000000E+00
-0.1143323993112E+01 -0.1426827745365E+01  0.0000000000000E+00
-0.1072058114862E+01 -0.1411998118171E+01  0.0000000000000E+00
-0.1000607103274E+01 -0.1398087786375E+01  0.0000000000000E+00
-0.9289815514207E+00 -0.1385106053576E+01  0.0000000000000E+00
-0.8571924453329E+00 -0.1373061734396E+01  0.0000000000000E+00
-0.7852510794390E+00 -0.1361963112090E+01  0.0000000000000E+00
-0.6422126030433E+00 -0.1342784468384E+01  0.0000000000000E+00
-0.5711435255488E+00 -0.1334684768748E+01  0.0000000000000E+00
-0.4999736369017E+00 -0.1327524435880E+01  0.0000000000000E+00
-0.4287150862649E+00 -0.1321308491716E+01  0.0000000000000E+00
-0.3573801183139E+00 -0.1316041318931E+01  0.0000000000000E+00
-0.2859812157621E+00 -0.1311726660302E+01  0.0000000000000E+00
-0.2145309892672E+00 -0.1308367596678E+01  0.0000000000000E+00
-0.1430421463503E+00 -0.1305966536203E+01  0.0000000000000E+00
-0.7152752388590E-01 -0.1304525207180E+01  0.0000000000000E+00
 0.6896563986558E-08 -0.1304044648606E+01  0.0000000000000E+00
 0.7152753767778E-01 -0.1304525207365E+01  0.0000000000000E+00
 0.1430421601384E+00 -0.1305966536574E+01  0.0000000000000E+00
 0.2145310030492E+00 -0.1308367597233E+01  0.0000000000000E+00
 0.2859812295354E+00 -0.1311726661042E+01  0.0000000000000E+00
 0.3573801320760E+00 -0.1316041319855E+01  0.0000000000000E+00
 0.4287151000135E+00 -0.1321308492824E+01  0.0000000000000E+00
 0.4999736506343E+00 -0.1327524437170E+01  0.0000000000000E+00
 0.5711435392633E+00 -0.1334684770220E+01  0.0000000000000E+00
 0.6422126167371E+00 -0.1342784470036E+01  0.0000000000000E+00
 0.7852510917199E+00 -0.1361963113902E+01  0.0000000000000E+00
 0.8571924562271E+00 -0.1373061736151E+01  0.0000000000000E+00
 0.9289815609321E+00 -0.1385106055236E+01  0.0000000000000E+00
 0.1000607111408E+01 -0.1398087787904E+01  0.0000000000000E+00
 0.1072058121623E+01 -0.1411998119533E+01  0.0000000000000E+00
 0.1143323998507E+01 -0.1426827746523E+01  0.0000000000000E+00
 0.1214394588795E+01 -0.1442566916938E+01  0.0000000000000E+00
 0.1285259983698E+01 -0.1459205416402E+01  0.0000000000000E+00
 0.1355910849717E+01 -0.1476732672412E+01  0.0000000000000E+00
-0.1579712636672E+01 -0.1257117726587E+01  0.0000000000000E+00
-0.1733164540211E+01 -0.1019175933670E+01  0.0000000000000E+00
-0.1854662117542E+01 -0.7635066404071E+00  0.0000000000000E+00
-0.1941975481337E+01 -0.4942606593644E+00  0.0000000000000E+00
-0.1991516502432E+01 -0.2156092846034E+00  0.0000000000000E+00
-0.1998781287050E+01  0.6736447573279E-01  0.0000000000000E+00
-0.1925316867218E+01  0.3385059547416E+00  0.0000000000000E+00
-0.1756248887890E+01  0.5644442091257E+00  0.0000000000000E+00
-0.1540277150090E+01  0.7471961778048E+00  0.0000000000000E+00
-0.1173981215584E+01  0.9468055532948E+00  0.0000000000000E+00
-0.1048246390832E+01  0.9957805369659E+00  0.0000000000000E+00
-0.9216449825030E+00  0.1042480347406E+01  0.0000000000000E+00
-0.7946812217419E+00  0.1088183183765E+01  0.0000000000000E+00
-0.6661180574429E+00  0.1129122063103E+01  0.0000000000000E+00
-0.5354041844713E+00  0.1162549250252E+01  0.0000000000000E+00
-0.4029695874389E+00  0.1188340213072E+01  0.0000000000000E+00
-0.2693161135181E+00  0.1206817739605E+01  0.0000000000000E+00
-0.1348660417516E+00  0.1218121850014E+01  0.0000000000000E+00
 0.4058846663134E-09  0.1222022719718E+01  0.0000000000000E+00
 0.1348660425620E+00  0.1218121849962E+01  0.0000000000000E+00
 0.2693161143243E+00  0.1206817739504E+01  0.0000000000000E+00
 0.4029695882387E+00  0.1188340212925E+01  0.0000000000000E+00
 0.5354041852619E+00  0.1162549250060E+01  0.0000000000000E+00
 0.6661180582227E+00  0.1129122062868E+01  0.0000000000000E+00
 0.7946812225112E+00  0.1088183183495E+01  0.0000000000000E+00
 0.9216449832687E+00  0.1042480347127E+01  0.0000000000000E+00
 0.1048246391595E+01  0.9957805366789E+00  0.0000000000000E+00
 0.1173981216337E+01  0.9468055529829E+00  0.0000000000000E+00
 0.1540277150686E+01  0.7471961773831E+00  0.0000000000000E+00
 0.1756248888337E+01  0.5644442086587E+00  0.0000000000000E+00
 0.1925316867476E+01  0.3385059542402E+00  0.0000000000000E+00
 0.1998781287072E+01  0.6736447525390E-01  0.0000000000000E+00
 0.1991516502379E+01 -0.2156092849952E+00  0.0000000000000E+00
 0.1941975481197E+01 -0.4942606596555E+00  0.0000000000000E+00
 0.1854662117367E+01 -0.7635066405985E+00  0.0000000000000E+00
 0.1733164540072E+01 -0.1019175933786E+01  0.0000000000000E+00
 0.1579712636620E+01 -0.1257117726658E+01  0.0000000000000E+00
-0.1100000000000E+01 -0.4167858878309E+01  0.0000000000000E+00
-0.1100000000000E+01 -0.4031673085110E+01  0.0000000000000E+00
-0.1100000000000E+01 -0.3895487265942E+01  0.0000000000000E+00
-0.1100000000000E+01 -0.3759301447614E+01  0.0000000000000E+00
-0.1100000000000E+01 -0.3623115632099E+01  0.0000000000000E+00
-0.1100000000000E+01 -0.3486929673705E+01  0.0000000000000E+00
-0.1100000000000E+01 -0.3350743588902E+01  0.0000000000000E+00
-0.1100000000000E+01 -0.3214558196319E+01  0.0000000000000E+00
-0.1100000000000E+01 -0.3078372499853E+01  0.0000000000000E+00
-0.1100009219814E+01 -0.2942186831538E+01  0.0000000000000E+00
-0.1101425067002E+01 -0.2806011978909E+01  0.0000000000000E+00
-0.1107601577287E+01 -0.2669976600093E+01  0.0000000000000E+00
-0.1119747344921E+01 -0.2534345262128E+01  0.0000000000000E+00
-0.1137772499496E+01 -0.2399367495624E+01  0.0000000000000E+00
-0.1161564969771E+01 -0.2265287019052E+01  0.0000000000000E+00
-0.1191325563594E+01 -0.2132404467843E+01  0.0000000000000E+00
-0.1226713953463E+01 -0.2000906688008E+01  0.0000000000000E+00
-0.1267386994665E+01 -0.1870945985496E+01  0.0000000000000E+00
-0.1313508982080E+01 -0.1742820021577E+01  0.0000000000000E+00
-0.1365854654983E+01 -0.1617114507943E+01  0.0000000000000E+00
 0.1365854655064E+01 -0.1617114507984E+01  0.0000000000000E+00
 0.1313508982144E+01 -0.1742820021612E+01  0.0000000000000E+00
 0.1267386994709E+01 -0.1870945985522E+01  0.0000000000000E+00
 0.1226713953493E+01 -0.2000906688028E+01  0.0000000000000E+00
 0.1191325563615E+01 -0.2132404467860E+01  0.0000000000000E+00
 0.1161564969779E+01 -0.2265287019065E+01  0.0000000000000E+00
 0.1137772499496E+01 -0.2399367495636E+01  0.0000000000000E+00
 0.1119747344920E+01 -0.2534345262137E+01  0.0000000000000E+00
 0.1107601577287E+01 -0.2669976600103E+01  0.0000000000000E+00
 0.1101425067003E+01 -0.2806011978917E+01  0.0000000000000E+00
 0.1100009219814E+01 -0.2942186831546E+01  0.0000000000000E+00
 0.1100000000000E+01 -0.3078372499860E+01  0.0000000000000E+00
[...]
<PointData Vectors="'U'">
<DataArray type="Float64" Name="U" NumberOfComponents="2" ComponentName0="U1" ComponentName1="U2" format="ascii">
-0.6475953274406E-37 -0.1692467794257E-36
-0.9114395561535E-37 -0.1183817566590E-36
-0.6967945534675E-37  0.1817563917181E-36
-0.7016422442322E-01 -0.7075126109635E-01
-0.6541644952755E-01 -0.3033962246941E-01
-0.5318430549018E-01 -0.2939896461001E-02
-0.4299464039971E-01 -0.4685799154300E-02
-0.9545874524270E+00 -0.2645890666244E+00
-0.7644587842604E+00 -0.8025317210827E+00
-0.8903449855593E+00 -0.2262030486022E+00
-0.6070428635992E+00 -0.6968453111569E+00
-0.1739271613000E-36 -0.5550833449495E-36
-0.1719906134005E-36 -0.4897816411026E-36
-0.1659970465934E-36 -0.4445733523334E-36
-0.1597199286727E-36 -0.4089781180705E-36
-0.1537883428848E-36 -0.3790951548905E-36
-0.1482817299575E-36 -0.3530058876095E-36
-0.1431611977171E-36 -0.3296162310270E-36
-0.1383653016571E-36 -0.3082420016351E-36
-0.1338344091039E-36 -0.2884261963155E-36
-0.1295209478104E-36 -0.2698496619338E-36
-0.1253913228200E-36 -0.2523937702348E-36
-0.1213901340279E-36 -0.2357470545958E-36
-0.1174883627818E-36 -0.2197649990102E-36
-0.1136595466740E-36 -0.2043300165856E-36
-0.1098810259570E-36 -0.1893427839001E-36
-0.1061332785779E-36 -0.1747170101110E-36
-0.1023994004979E-36 -0.1603757923317E-36
-0.9866472313217E-37 -0.1462490319198E-36
-0.9491654467045E-37 -0.1322715635217E-36
-0.8733774778382E-37 -0.1045204489174E-36
-0.8349039695623E-37 -0.9063008616131E-37
-0.7959611691035E-37 -0.7665398218667E-37
-0.7565098685590E-37 -0.6253561992313E-37
-0.7165316012932E-37 -0.4821790805567E-37
-0.6760317227585E-37 -0.3364231203546E-37
-0.6350437354857E-37 -0.1874772814941E-37
-0.5936352848029E-37 -0.3468922506094E-38
-0.5519162507229E-37  0.1226576420143E-37
-0.5099896027798E-37  0.2854072204500E-37
-0.4680765004214E-37  0.4547028573066E-37
-0.4266199348288E-37  0.6314139771989E-37
-0.3860740742870E-37  0.8171038721471E-37
-0.3470866020072E-37  0.1014001746992E-36
-0.3105253916421E-37  0.1225551043788E-36
-0.2774054361804E-37  0.1457667711304E-36
-0.2481248574795E-37  0.1722100924092E-36
-0.2175653141306E-37  0.2047808989618E-36
-0.1398572749291E-37  0.2535675017979E-36
-0.7006024715931E-01 -0.6070472817746E-01
-0.6946247326874E-01 -0.5444746128922E-01
-0.6884764082187E-01 -0.4975212146722E-01
-0.6829344206891E-01 -0.4591733365443E-01
-0.6778653134799E-01 -0.4262449545249E-01
-0.6730623370070E-01 -0.3970772629784E-01
-0.6683705255699E-01 -0.3707174528128E-01
-0.6636924445948E-01 -0.3465687229842E-01
-0.6589706874725E-01 -0.3242288447639E-01
-0.6493891035888E-01 -0.2842347391165E-01
-0.6444674872404E-01 -0.2662089138747E-01
-0.6394365762408E-01 -0.2491523896732E-01
-0.6342960681466E-01 -0.2329443422150E-01
-0.6290417130172E-01 -0.2174762156614E-01
-0.6236670815021E-01 -0.2026520672661E-01
-0.6181649355647E-01 -0.1883861295926E-01
-0.6125277244385E-01 -0.1746013692161E-01
-0.6067479029049E-01 -0.1612285829785E-01
-0.6008181344631E-01 -0.1482059295696E-01
-0.5947314306597E-01 -0.1354788470222E-01
-0.5884812133683E-01 -0.1230002701102E-01
-0.5820612994781E-01 -0.1107311146576E-01
-0.5754658183290E-01 -0.9864100541486E-02
-0.5686890755741E-01 -0.8670918862654E-02
-0.5617254249328E-01 -0.7492558548894E-02
-0.5545691302658E-01 -0.6329170798915E-02
-0.5472138771279E-01 -0.5182054341185E-02
-0.5396505118509E-01 -0.4053421514049E-02
-0.5236619862071E-01 -0.1856446779073E-02
-0.5149764945579E-01 -0.8419633594590E-03
-0.5058466013483E-01  0.8538606762714E-04
-0.4962415761640E-01  0.8950911660975E-03
-0.4860824414740E-01  0.1540373464510E-02
-0.4752459936823E-01  0.1945625214402E-02
-0.4635898514484E-01  0.1980702861889E-02
-0.4510849186909E-01  0.1402429966972E-02
-0.4384980644172E-01 -0.3033080460452E-03
-0.2943733418369E+00 -0.2417970263921E+00
-0.4369140998841E+00 -0.3553026938143E+00
-0.5639497435203E+00 -0.4076979056016E+00
-0.6700122687221E+00 -0.4290646012140E+00
-0.7584315301967E+00 -0.4311671790681E+00
-0.8317450951031E+00 -0.4208331147617E+00
-0.8898309372066E+00 -0.3936476330141E+00
-0.9287202737680E+00 -0.3502798883056E+00
-0.9498289883811E+00 -0.3046147344310E+00
-0.9510816922184E+00 -0.2500622264380E+00
-0.9447888380360E+00 -0.2399994951420E+00
-0.9361503318427E+00 -0.2347954545901E+00
-0.9253205127819E+00 -0.2351163226120E+00
-0.9126162055156E+00 -0.2418145176730E+00
-0.8985493465694E+00 -0.2560052625430E+00
-0.8835860338782E+00 -0.2791155593823E+00
-0.8683184058742E+00 -0.3132210342130E+00
-0.8537420224321E+00 -0.3616527858000E+00
-0.8421104797631E+00 -0.4305470892978E+00
-0.8370852219156E+00 -0.5352382758523E+00
-0.8418387752453E+00 -0.6741634542602E+00
-0.8555299446206E+00 -0.8169615958883E+00
-0.8741132054446E+00 -0.9375344555682E+00
-0.8917897713624E+00 -0.1022479966128E+01
-0.9010990238019E+00 -0.1064646520316E+01
-0.8952350843719E+00 -0.1062234754663E+01
-0.8721100250831E+00 -0.1016557555087E+01
-0.8303994375559E+00 -0.9290256012190E+00
-0.5733364539494E+00 -0.5222074532243E+00
-0.3730140904937E+00 -0.3026295518636E+00
-0.2130646763985E+00 -0.1905421319201E+00
-0.8263245691619E-01 -0.1650212582393E+00
 0.1078264258451E-01 -0.1723620395952E+00
 0.7265092061584E-01 -0.1821420620048E+00
 0.1040895134006E+00 -0.1848197440954E+00
 0.1045883039593E+00 -0.1689350292850E+00
 0.7539329295779E-01 -0.1102942439951E+00
-0.2252542090792E-02 -0.3977951413662E-02
-0.3979562605431E-02 -0.6926917669043E-02
-0.5729049039406E-02 -0.9675663039556E-02
-0.7562551292607E-02 -0.1227473496244E-01
-0.9520645426266E-02 -0.1476034799658E-01
-0.1161339614403E-01 -0.1714996751805E-01
-0.1384334454538E-01 -0.1945568520619E-01
-0.1620666403221E-01 -0.2168940099712E-01
-0.1869577579452E-01 -0.2386722354966E-01
-0.2130422373504E-01 -0.2602330080704E-01
-0.2404385863923E-01 -0.2823295689536E-01
-0.2693820663967E-01 -0.3057195854236E-01
-0.2999146963807E-01 -0.3304172888749E-01
-0.3319841444399E-01 -0.3564373314082E-01
-0.3656245494170E-01 -0.3841312359354E-01
-0.4010295190913E-01 -0.4141385246314E-01
-0.4386604727471E-01 -0.4472777431563E-01
-0.4792667222685E-01 -0.4850847642416E-01
-0.5251561557381E-01 -0.5309527836736E-01
-0.5779123581431E-01 -0.5952565278842E-01
-0.4716630041602E-01  0.1124720406245E-02
-0.4588658336070E-01  0.3942384576041E-02
-0.4387573976023E-01  0.5592247587911E-02
-0.4133556234288E-01  0.6742765968483E-02
-0.3847849182937E-01  0.7589006801516E-02
-0.3540485861570E-01  0.8216427941027E-02
-0.3220260276409E-01  0.8667641301212E-02
-0.2894980797402E-01  0.8959975324730E-02
-0.2571388443985E-01  0.9114440548984E-02
-0.2255445837742E-01  0.9150205952405E-02
-0.1952173333536E-01  0.9066012779620E-02
-0.1664799220149E-01  0.8822698769747E-02
-0.1395083364403E-01  0.8417772051172E-02
-0.1144487947835E-01  0.7866432498103E-02
-0.9144373096818E-02  0.7178990903925E-02
-0.7062687489648E-02  0.6362489340298E-02
-0.5211539046948E-02  0.5421059336529E-02
-0.3601465290440E-02  0.4355096796922E-02
-0.2232892518000E-02  0.3156734019459E-02
-0.1105523592936E-02  0.1815479815149E-02
-0.8937764629878E+00 -0.2308852237086E+00
-0.8968928463419E+00 -0.2387470171248E+00
-0.8994751199634E+00 -0.2496810472045E+00
-0.9014507325886E+00 -0.2637623678912E+00
-0.9027197228549E+00 -0.2811090378792E+00
-0.9031248665930E+00 -0.3018488600926E+00
-0.9024300894532E+00 -0.3260777023706E+00
-0.9003060388638E+00 -0.3538121560548E+00
-0.8963232608411E+00 -0.3849444428712E+00
-0.8899554628034E+00 -0.4191902863406E+00
-0.8805997943427E+00 -0.4560266611585E+00
-0.8676351030517E+00 -0.4945853349275E+00
-0.8505167965539E+00 -0.5336300200928E+00
-0.8288615448342E+00 -0.5716825436546E+00
-0.8024875253679E+00 -0.6071681738790E+00
-0.7714199974599E+00 -0.6385329880641E+00
-0.7358802271573E+00 -0.6643306840926E+00
-0.6962677758741E+00 -0.6832813339459E+00
-0.6531371253210E+00 -0.6943392258595E+00
-0.8505356820189E+00 -0.2189798367144E+00
-0.8006869559452E+00 -0.2084878558847E+00
-0.7419046751191E+00 -0.1942592810175E+00
-0.6749177857740E+00 -0.1763140326491E+00
-0.5993820923233E+00 -0.1550212365554E+00
-0.5148116125754E+00 -0.1312085723833E+00
-0.4205671778189E+00 -0.1060271100900E+00
-0.3153830869112E+00 -0.8055226812047E-01
-0.1974667258012E+00 -0.5545417956187E-01
-0.5178203232682E+00 -0.6002591067119E+00
-0.4364787367576E+00 -0.5063186042980E+00
-0.3630109744108E+00 -0.4172284724686E+00
-0.2962651153839E+00 -0.3336809809567E+00
-0.2358822730634E+00 -0.2560300176757E+00
-0.1818889802474E+00 -0.1849728391720E+00
-0.1345417717304E+00 -0.1216654619620E+00
-0.9525156062027E-01 -0.6792597713871E-01
-0.6654312517030E-01 -0.2665870785238E-01
-0.9023361663929E+00 -0.2257316619548E+00
-0.9123890006103E+00 -0.2255768509933E+00
-0.9205586451459E+00 -0.2261600235371E+00
-0.9271680439900E+00 -0.2277522411596E+00
-0.9325956013069E+00 -0.2305399244113E+00
-0.9372229723957E+00 -0.2346355904726E+00
-0.9414104325304E+00 -0.2400926902695E+00
-0.9454905210581E+00 -0.2469209882762E+00
-0.9497656358805E+00 -0.2550952577539E+00
-0.6090005411823E+00 -0.7357337361617E+00
-0.6109828546539E+00 -0.7724107454856E+00
-0.6135579799438E+00 -0.8055342044083E+00
-0.6174810022773E+00 -0.8337562567755E+00
-0.6237871851683E+00 -0.8555351278913E+00
-0.6339106543101E+00 -0.8691486798663E+00
-0.6498202727727E+00 -0.8727230331179E+00
-0.6741938634280E+00 -0.8642620792862E+00
-0.7105779713529E+00 -0.8416983632610E+00
-0.1885921680994E-02 -0.3270705532697E-02
-0.3730629549044E-02 -0.6319228475999E-02
-0.5495715208218E-02 -0.9033911963170E-02
-0.7359642439683E-02 -0.1159757002038E-01
-0.9344119257741E-02 -0.1404020636245E-01
-0.1146458325011E-01 -0.1638496594414E-01
-0.1372257845197E-01 -0.1864591971912E-01
-0.1611408873098E-01 -0.2083636120848E-01
-0.1863068806286E-01 -0.2297320097122E-01
-0.2126603547001E-01 -0.2507943864050E-01
-0.2403437445495E-01 -0.2719998551051E-01
-0.2696322064726E-01 -0.2940592641316E-01
-0.3005775558581E-01 -0.3172240771312E-01
-0.3331167904047E-01 -0.3415643020442E-01
-0.3672959628065E-01 -0.3673045180804E-01
-0.4033475516903E-01 -0.3949255253132E-01
-0.4417413257952E-01 -0.4249834630368E-01
-0.4836066093193E-01 -0.4583265599045E-01
-0.5305909314827E-01 -0.4968847948257E-01
-0.5932886470668E-01 -0.5415270388562E-01
-0.1642810398462E-02 -0.2888946939464E-02
-0.3470507392787E-02 -0.5770131565731E-02
-0.5274273648315E-02 -0.8446320200410E-02
-0.7161006617802E-02 -0.1095523669876E-01
-0.9172061640810E-02 -0.1334688058232E-01
-0.1131893029168E-01 -0.1564019216277E-01
-0.1360408640831E-01 -0.1785039920737E-01
-0.1602294205338E-01 -0.1999052248121E-01
-0.1856746074885E-01 -0.2207461394514E-01
-0.2123388727553E-01 -0.2411545539241E-01
-0.2403769398631E-01 -0.2614416074204E-01
-0.2700464301250E-01 -0.2822795145838E-01
-0.3014057293042E-01 -0.3039870798538E-01
-0.3344205873427E-01 -0.3266542408577E-01
-0.3691675537414E-01 -0.3504252398136E-01
-0.4059109539562E-01 -0.3756239024104E-01
-0.4452585858390E-01 -0.4025133105556E-01
-0.4883950343066E-01 -0.4314656006573E-01
-0.5383409747974E-01 -0.4625745294312E-01
-0.6045453935795E-01 -0.4969250164101E-01
-0.1474466042088E-02 -0.2631203722693E-02
-0.3240013612874E-02 -0.5320660029008E-02
-0.5061581331254E-02 -0.7905419315974E-02
-0.6970784159049E-02 -0.1034951362789E-01
-0.9005432662644E-02 -0.1267992366299E-01
-0.1117763184865E-01 -0.1491526377326E-01
-0.1348900470154E-01 -0.1706850904299E-01
-0.1593501748389E-01 -0.1915112929398E-01
-0.1850882263743E-01 -0.2117303120955E-01
-0.2120927097008E-01 -0.2314001710175E-01
-0.2405173029129E-01 -0.2507589160866E-01
-0.2705896661489E-01 -0.2704332920133E-01
-0.3023732802603E-01 -0.2907452821448E-01
-0.3358719484392E-01 -0.3117787514480E-01
-0.3711992695954E-01 -0.3336174111055E-01
-0.4086747941282E-01 -0.3564468365247E-01
-0.4489892742281E-01 -0.3803342780180E-01
-0.4935619157332E-01 -0.4052231358475E-01
-0.5456713120566E-01 -0.4310310606378E-01
-0.6110206514382E-01 -0.4597554816261E-01
-0.1351969442385E-02 -0.2434617995663E-02
-0.3045217917676E-02 -0.4946022878974E-02
-0.4864120850991E-02 -0.7414214268370E-02
-0.6790193097349E-02 -0.9778017669077E-02
-0.8845863095162E-02 -0.1203902257786E-01
-0.1104170083203E-01 -0.1420959085239E-01
-0.1337849937790E-01 -0.1629988546604E-01
-0.1585179273225E-01 -0.1831847139528E-01
-0.1845618385609E-01 -0.2027127779281E-01
-0.2119240812485E-01 -0.2215952911356E-01
-0.2407495699629E-01 -0.2400243131430E-01
-0.2712362673222E-01 -0.2585756583982E-01
-0.3034521465613E-01 -0.2775488504884E-01
-0.3374365765033E-01 -0.2970104608091E-01
-0.3733434119069E-01 -0.3169962808405E-01
-0.4115372451443E-01 -0.3375992264278E-01
-0.4527759078777E-01 -0.3587578447034E-01
-0.4985513572188E-01 -0.3803151582918E-01
-0.5515248278245E-01 -0.4025415688431E-01
-0.6142980105404E-01 -0.4276063941348E-01
-0.1259086071673E-02 -0.2272885427042E-02
-0.2882594751546E-02 -0.4624080955983E-02
-0.4685459161311E-02 -0.6967635979785E-02
-0.6620992628880E-02 -0.9239162487179E-02
-0.8694494736562E-02 -0.1142294886225E-01
-0.1091215058972E-01 -0.1352262139231E-01
-0.1327355726902E-01 -0.1554439124884E-01
-0.1577428012157E-01 -0.1749346534835E-01
-0.1841013469042E-01 -0.1937226081055E-01
-0.2118297059746E-01 -0.2117895687468E-01
-0.2410601492725E-01 -0.2292938299803E-01
-0.2719641909209E-01 -0.2467579883965E-01
-0.3046129740887E-01 -0.2644502841887E-01
-0.3390754938688E-01 -0.2824180231978E-01
-0.3755389297386E-01 -0.3006659221416E-01
-0.4143965191488E-01 -0.3192341266737E-01
-0.4564209064682E-01 -0.3380259034977E-01
-0.5029568013341E-01 -0.3569829981415E-01
-0.5557936035815E-01 -0.3766780937043E-01
-0.6155526319845E-01 -0.3990305182988E-01
-0.1186322588278E-02 -0.2132944574502E-02
-0.2746773719320E-02 -0.4339524660144E-02
-0.4526267799167E-02 -0.6558336404126E-02
-0.6464506958600E-02 -0.8730343809398E-02
-0.8552248158600E-02 -0.1083029616008E-01
-0.1078979677003E-01 -0.1285368011079E-01
-0.1317493424297E-01 -0.1480207854653E-01
-0.1570305884220E-01 -0.1667724835655E-01
-0.1837076223834E-01 -0.1847862649395E-01
-0.2118034130074E-01 -0.2020227854803E-01
-0.2414357089343E-01 -0.2186128799077E-01
-0.2727525670565E-01 -0.2350262755583E-01
-0.3058261116777E-01 -0.2514989092875E-01
-0.3407466514763E-01 -0.2680629872371E-01
-0.3777225178299E-01 -0.2847090099307E-01
-0.4171516124822E-01 -0.3014616226462E-01
-0.4597536993560E-01 -0.3182600916847E-01
-0.5065954151026E-01 -0.3351931160756E-01
-0.5586688633057E-01 -0.3529748302375E-01
-0.6154861373252E-01 -0.3731522259048E-01
-0.1127834290847E-02 -0.2007550356962E-02
-0.2632734665104E-02 -0.4082057746187E-02
-0.4385595402471E-02 -0.6179342270106E-02
-0.6321302587980E-02 -0.8248277165879E-02
-0.8419770426313E-02 -0.1025945259337E-01
-0.1067522490458E-01 -0.1220204064636E-01
-0.1308312033852E-01 -0.1407306054759E-01
-0.1563836148111E-01 -0.1587095506997E-01
-0.1833782984999E-01 -0.1759266632154E-01
-0.2118372858904E-01 -0.1923273580180E-01
-0.2418626918269E-01 -0.2080189442296E-01
-0.2735810022470E-01 -0.2234203941473E-01
-0.3070621277813E-01 -0.2387381644893E-01
-0.3424081249910E-01 -0.2539961500326E-01
-0.3798336196889E-01 -0.2691860762058E-01
-0.4197137153301E-01 -0.2843460371787E-01
-0.4626618860965E-01 -0.2994840338976E-01
-0.5094289242896E-01 -0.3148103164057E-01
-0.5603908640150E-01 -0.3310552664027E-01
-0.6145067785450E-01 -0.3494086275828E-01
-0.1079841108782E-02 -0.1892353590338E-02
-0.2536300876768E-02 -0.3844672714470E-02
-0.4261768078785E-02 -0.5824793771891E-02
-0.6191283702302E-02 -0.7789551398060E-02
-0.8297377726203E-02 -0.9708652817544E-02
-0.1056877823529E-01 -0.1156693240426E-01
-0.1299834953884E-01 -0.1335742910853E-01
-0.1558015005519E-01 -0.1507559491279E-01
-0.1831088433128E-01 -0.1671630252286E-01
-0.2119222717052E-01 -0.1827297384500E-01
-0.2423273041336E-01 -0.1975428684894E-01
-0.2744295462408E-01 -0.2119738030809E-01
-0.3082926724831E-01 -0.2262039642008E-01
-0.3440205193845E-01 -0.2402561610726E-01
-0.3818185432903E-01 -0.2541357353764E-01
-0.4220147729479E-01 -0.2679112094386E-01
-0.4650874427716E-01 -0.2816630054425E-01
-0.5114920690535E-01 -0.2956783060586E-01
-0.5611725313844E-01 -0.3106319474221E-01
-0.6128569304521E-01 -0.3274156118335E-01
-0.1039786346720E-02 -0.1784580913451E-02
-0.2454126447305E-02 -0.3622497007843E-02
-0.4152888447543E-02 -0.5489984515792E-02
-0.6073890099852E-02 -0.7350964326784E-02
-0.8185062661124E-02 -0.9176084501816E-02
-0.1047055937175E-01 -0.1094753717577E-01
-0.1292062768727E-01 -0.1265520177393E-01
-0.1552817715352E-01 -0.1429199215530E-01
-0.1828932344851E-01 -0.1585109692101E-01
-0.2120485941942E-01 -0.1732512373688E-01
-0.2428157081861E-01 -0.1872095804157E-01
-0.2752789906438E-01 -0.2007134640965E-01
-0.3094913558450E-01 -0.2139240559968E-01
-0.3455487407927E-01 -0.2268694148122E-01
-0.3836334032635E-01 -0.2395767165143E-01
-0.4240091875978E-01 -0.2521510204019E-01
-0.4670120721863E-01 -0.2647340101670E-01
-0.5128493245954E-01 -0.2776491511081E-01
-0.5611841290486E-01 -0.2914863687351E-01
-0.6106873164063E-01 -0.3068956641264E-01
-0.1005869863976E-02 -0.1682376479075E-02
-0.2383556752139E-02 -0.3412061303187E-02
-0.4057082694729E-02 -0.5171194269589E-02
-0.5968276752727E-02 -0.6929664781928E-02
-0.8082543508415E-02 -0.8659978691619E-02
-0.1038044924095E-01 -0.1034299425151E-01
-0.1284976540133E-01 -0.1196629096400E-01
-0.1548203434748E-01 -0.1352076015590E-01
-0.1827244211321E-01 -0.1499826701511E-01
-0.2122060800726E-01 -0.1639085589520E-01
-0.2433142991441E-01 -0.1770385709421E-01
-0.2761112743343E-01 -0.1896599821598E-01
-0.3106344856598E-01 -0.2019180807251E-01
-0.3469631963586E-01 -0.2138508889241E-01
-0.3852452602899E-01 -0.2255114134829E-01
-0.4256712688085E-01 -0.2370399592410E-01
-0.4684427089270E-01 -0.2486233251320E-01
-0.5135731815565E-01 -0.2605927107793E-01
-0.5605549865596E-01 -0.2734449204299E-01
-0.6081001615661E-01 -0.2876506417030E-01
-0.9767468241277E-03 -0.1584442247048E-02
-0.2322449422040E-02 -0.3211048167062E-02
-0.3972608670103E-02 -0.4866113700537E-02
-0.5873469741640E-02 -0.6524415271449E-02
-0.7989342624222E-02 -0.8160683010003E-02
-0.1029809737791E-01 -0.9755376226017E-02
-0.1278525719896E-01 -0.1129455575759E-01
-0.1544086055217E-01 -0.1276760939902E-01
-0.1825889513097E-01 -0.1416541669220E-01
-0.2123756959087E-01 -0.1547967100339E-01
-0.2437977743334E-01 -0.1671436839795E-01
-0.2768939873206E-01 -0.1789459509925E-01
-0.3116822241880E-01 -0.1903364920374E-01
-0.3482181397867E-01 -0.2013658339502E-01
-0.3866081954485E-01 -0.2121128331393E-01
-0.4269688291640E-01 -0.2227470693558E-01
-0.4693853715542E-01 -0.2334844660909E-01
-0.5137304075422E-01 -0.2446461850588E-01
-0.5594079248499E-01 -0.2566435719879E-01
-0.6052002352412E-01 -0.2698111457925E-01
-0.9514703178719E-03 -0.1489863832548E-02
-0.2269147354622E-02 -0.3017384640961E-02
-0.3897901696575E-02 -0.4571804510682E-02
-0.5788392804497E-02 -0.6131862115815E-02
-0.7904817036106E-02 -0.7674607778335E-02
-0.1022311046930E-01 -0.9180765444273E-02
-0.1272682228466E-01 -0.1063554758598E-01
-0.1540443141011E-01 -0.1202732297930E-01
-0.1824853445504E-01 -0.1334629436846E-01
-0.2125573700751E-01 -0.1458398732665E-01
-0.2442679954090E-01 -0.1574324417211E-01
-0.2776310662057E-01 -0.1684580791738E-01
-0.3126409400026E-01 -0.1790399535373E-01
-0.3493239995557E-01 -0.1892421554517E-01
-0.3877408920093E-01 -0.1991676207682E-01
-0.4279365688433E-01 -0.2090086238755E-01
-0.4698989721012E-01 -0.2189981186762E-01
-0.5134020866085E-01 -0.2294382502846E-01
-0.5578104589323E-01 -0.2406663881680E-01
-0.6020051479983E-01 -0.2529123888655E-01
-0.9292728798541E-03 -0.1397935939293E-02
-0.2222278809489E-02 -0.2829624131750E-02
-0.3831576005196E-02 -0.4286395223267E-02
-0.5711995737034E-02 -0.5750189378126E-02
-0.7828242016987E-02 -0.7200318275764E-02
-0.1015492496649E-01 -0.8618219050729E-02
-0.1267389750131E-01 -0.9988802326218E-02
-0.1537208123229E-01 -0.1129985017045E-01
-0.1824055064089E-01 -0.1254116861356E-01
-0.2127415564307E-01 -0.1370427400494E-01
-0.2447140294067E-01 -0.1479100596636E-01
-0.2783102829388E-01 -0.1582001337758E-01
-0.3134977769284E-01 -0.1680278942474E-01
-0.3502694668631E-01 -0.1774707252114E-01