<VTKFile type="UnstructuredGrid" version="1,0" byte_order="LittleEndian">
<UnstructuredGrid>
<Piece NumberOfPoints="5802" NumberOfCells="5680">
<Points>
<DataArray type="Float64" NumberOfComponents="3" format="ascii">
-0.1100000000000E+01 -0.4304044648606E+01  0.0000000000000E+00
 0.0000000000000E+00 -0.4304044648606E+01  0.0000000000000E+00
 0.1100000000000E+01 -0.4304044648606E+01  0.0000000000000E+00
-0.1426338184892E+01 -0.1495137730994E+01  0.0000000000000E+00
-0.7131690856113E+00 -0.1351817918288E+01  0.0000000000000E+00
 0.7131690992823E+00 -0.1351817920119E+01  0.0000000000000E+00
 0.1426338184892E+01 -0.1495137730994E+01  0.0000000000000E+00
-0.1297471036855E+01  0.8924645033579E+00  0.0000000000000E+00
 0.1297471037589E+01  0.8924645030013E+00  0.0000000000000E+00
-0.7500000000000E+00  0.3449934570704E+00  0.0000000000000E+00
 0.7500000000000E+00  0.3449934570704E+00  0.0000000000000E+00
-0.1072500000000E+01 -0.4304044648606E+01  0.0000000000000E+00
-0.1045000000000E+01 -0.4304044648606E+01  0.0000000000000E+00
-0.1017500000000E+01 -0.4304044648606E+01  0.0000000000000E+00
-0.9900000000000E+00 -0.4304044648606E+01  0.0000000000000E+00
-0.9625000000000E+00 -0.4304044648606E+01  0.0000000000000E+00
-0.9350000000000E+00 -0.4304044648606E+01  0.0000000000000E+00
-0.9075000000000E+00 -0.4304044648606E+01  0.0000000000000E+00
-0.8800000000000E+00 -0.4304044648606E+01  0.0000000000000E+00
-0.8525000000000E+00 -0.4304044648606E+01  0.0000000000000E+00
-0.8250000000000E+00 -0.4304044648606E+01  0.0000000000000E+00
-0.7975000000000E+00 -0.4304044648606E+01  0.0000000000000E+00
-0.7700000000000E+00 -0.4304044648606E+01  0.0000000000000E+00
-0.7425000000000E+00 -0.4304044648606E+01  0.0000000000000E+00
-0.7150000000000E+00 -0.4304044648606E+01  0.0000000000000E+00
-0.6875000000000E+00 -0.4304044648606E+01  0.0000000000000E+00
-0.6600000000000E+00 -0.4304044648606E+01  0.0000000000000E+00
-0.6325000000000E+00 -0.4304044648606E+01  0.0000000000000E+00
-0.6050000000000E+00 -0.4304044648606E+01  0.0000000000000E+00
-0.5775000000000E+00 -0.4304044648606E+01  0.0000000000000E+00
-0.5500000000000E+00 -0.4304044648606E+01  0.0000000000000E+00
-0.5225000000000E+00 -0.4304044648606E+01  0.0000000000000E+00
-0.4950000000000E+00 -0.4304044648606E+01  0.0000000000000E+00
-0.4675000000000E+00 -0.4304044648606E+01  0.0000000000000E+00
-0.4400000000000E+00 -0.4304044648606E+01  0.0000000000000E+00
-0.4125000000000E+00 -0.4304044648606E+01  0.0000000000000E+00
-0.3850000000000E+00 -0.4304044648606E+01  0.0000000000000E+00
-0.3575000000000E+00 -0.4304044648606E+01  0.0000000000000E+00
-0.3300000000000E+00 -0.4304044648606E+01  0.0000000000000E+00
-0.3025000000000E+00 -0.4304044648606E+01  0.0000000000000E+00
-0.2750000000000E+00 -0.4304044648606E+01  0.0000000000000E+00
-0.2475000000000E+00 -0.4304044648606E+01  0.0000000000000E+00
-0.2200000000000E+00 -0.4304044648606E+01  0.0000000000000E+00
-0.1925000000000E+00 -0.4304044648606E+01  0.0000000000000E+00
-0.1650000000000E+00 -0.4304044648606E+01  0.0000000000000E+00
-0.1375000000000E+00 -0.4304044648606E+01  0.0000000000000E+00
-0.1100000000000E+00 -0.4304044648606E+01  0.0000000000000E+00
-0.8250000000000E-01 -0.4304044648606E+01  0.0000000000000E+00
-0.5500000000000E-01 -0.4304044648606E+01  0.0000000000000E+00
-0.2750000000000E-01 -0.4304044648606E+01  0.0000000000000E+00
 0.2750000000000E-01 -0.4304044648606E+01  0.0000000000000E+00
 0.5500000000000E-01 -0.4304044648606E+01  0.0000000000000E+00
 0.8250000000000E-01 -0.4304044648606E+01  0.0000000000000E+00
 0.1100000000000E+00 -0.4304044648606E+01  0.0000000000000E+00
 0.1375000000000E+00 -0.4304044648606E+01  0.0000000000000E+00
 0.1650000000000E+00 -0.4304044648606E+01  0.0000000000000E+00
 0.1925000000000E+00 -0.4304044648606E+01  0.0000000000000E+00
 0.2200000000000E+00 -0.4304044648606E+01  0.0000000000000E+00
 0.2475000000000E+00 -0.4304044648606E+01  0.0000000000000E+00
 0.2750000000000E+00 -0.4304044648606E+01  0.0000000000000E+00
 0.3025000000000E+00 -0.4304044648606E+01  0.0000000000000E+00
 0.3300000000000E+00 -0.4304044648606E+01  0.0000000000000E+00
 0.3575000000000E+00 -0.4304044648606E+01  0.0000000000000E+00
 0.3850000000000E+00 -0.4304044648606E+01  0.0000000000000E+00
 0.4125000000000E+00 -0.4304044648606E+01  0.0000000000000E+00
 0.4400000000000E+00 -0.4304044648606E+01  0.0000000000000E+00
 0.4675000000000E+00 -0.4304044648606E+01  0.0000000000000E+00
 0.4950000000000E+00 -0.4304044648606E+01  0.0000000000000E+00
 0.5225000000000E+00 -0.4304044648606E+01  0.0000000000000E+00
 0.5500000000000E+00 -0.4304044648606E+01  0.0000000000000E+00
 0.5775000000000E+00 -0.4304044648606E+01  0.0000000000000E+00
 0.6050000000000E+00 -0.4304044648606E+01  0.0000000000000E+00
 0.6325000000000E+00 -0.4304044648606E+01  0.0000000000000E+00
 0.6600000000000E+00 -0.4304044648606E+01  0.0000000000000E+00
 0.6875000000000E+00 -0.4304044648606E+01  0.0000000000000E+00
 0.7150000000000E+00 -0.4304044648606E+01  0.0000000000000E+00
 0.7425000000000E+00 -0.4304044648606E+01  0.0000000000000E+00
 0.7700000000000E+00 -0.4304044648606E+01  0.0000000000000E+00
 0.7975000000000E+00 -0.4304044648606E+01  0.0000000000000E+00
 0.8250000000000E+00 -0.4304044648606E+01  0.0000000000000E+00
 0.8525000000000E+00 -0.4304044648606E+01  0.0000000000000E+00
 0.8800000000000E+00 -0.4304044648606E+01  0.0000000000000E+00
 0.9075000000000E+00 -0.4304044648606E+01  0.0000000000000E+00
 0.9350000000000E+00 -0.4304044648606E+01  0.0000000000000E+00
 0.9625000000000E+00 -0.4304044648606E+01  0.0000000000000E+00
 0.9900000000000E+00 -0.4304044648606E+01  0.0000000000000E+00
 0.1017500000000E+01 -0.4304044648606E+01  0.0000000000000E+00
 0.1045000000000E+01 -0.4304044648606E+01  0.0000000000000E+00
 0.1072500000000E+01 -0.4304044648606E+01  0.0000000000000E+00
-0.1391152984612E+01 -0.1485826169004E+01  0.0000000000000E+00
-0.1355910848380E+01 -0.1476732672072E+01  0.0000000000000E+00
-0.1320612835817E+01 -0.1467858633912E+01  0.0000000000000E+00
-0.1285259981017E+01 -0.1459205415754E+01  0.0000000000000E+00
-0.1249853511796E+01 -0.1450774398559E+01  0.0000000000000E+00
-0.1214394584761E+01 -0.1442566916018E+01  0.0000000000000E+00
-0.1178884329493E+01 -0.1434584266595E+01  0.0000000000000E+00
-0.1143323993112E+01 -0.1426827745365E+01  0.0000000000000E+00
-0.1107714835036E+01 -0.1419298618073E+01  0.0000000000000E+00
-0.1072058114862E+01 -0.1411998118171E+01  0.0000000000000E+00
-0.1036355114016E+01 -0.1404927450906E+01  0.0000000000000E+00
-0.1000607103274E+01 -0.1398087786375E+01  0.0000000000000E+00
-0.9648154637952E+00 -0.1391480281711E+01  0.0000000000000E+00
-0.9289815514207E+00 -0.1385106053576E+01  0.0000000000000E+00
-0.8931067449032E+00 -0.1378966186997E+01  0.0000000000000E+00
-0.8571924453329E+00 -0.1373061734396E+01  0.0000000000000E+00
-0.8212400755349E+00 -0.1367393714636E+01  0.0000000000000E+00
-0.7852510794390E+00 -0.1361963112090E+01  0.0000000000000E+00
-0.7492269214199E+00 -0.1356770875739E+01  0.0000000000000E+00
-0.6777056485815E+00 -0.1347184849055E+01  0.0000000000000E+00
-0.6422126030433E+00 -0.1342784468384E+01  0.0000000000000E+00
-0.6066914054888E+00 -0.1338617534531E+01  0.0000000000000E+00
-0.5711435255488E+00 -0.1334684768748E+01  0.0000000000000E+00
-0.5355704233029E+00 -0.1330986852489E+01  0.0000000000000E+00
-0.4999736369017E+00 -0.1327524435880E+01  0.0000000000000E+00
-0.4643546817971E+00 -0.1324298126257E+01  0.0000000000000E+00
-0.4287150862649E+00 -0.1321308491716E+01  0.0000000000000E+00
-0.3930563807228E+00 -0.1318556059836E+01  0.0000000000000E+00
-0.3573801183139E+00 -0.1316041318931E+01  0.0000000000000E+00
-0.3216878730590E+00 -0.1313764717124E+01  0.0000000000000E+00
-0.2859812157621E+00 -0.1311726660302E+01  0.0000000000000E+00
-0.2502617257092E+00 -0.1309927512732E+01  0.0000000000000E+00
-0.2145309892672E+00 -0.1308367596678E+01  0.0000000000000E+00
-0.1787905926666E+00 -0.1307047191884E+01  0.0000000000000E+00
-0.1430421463503E+00 -0.1305966536203E+01  0.0000000000000E+00
-0.1072872541886E+00 -0.1305125824139E+01  0.0000000000000E+00
-0.7152752388590E-01 -0.1304525207180E+01  0.0000000000000E+00
-0.3576456602431E-01 -0.1304164793652E+01  0.0000000000000E+00
 0.6896563736758E-08 -0.1304044648606E+01  0.0000000000000E+00
 0.3576457981713E-01 -0.1304164793745E+01  0.0000000000000E+00
 0.7152753767778E-01 -0.1304525207365E+01  0.0000000000000E+00
 0.1072872679789E+00 -0.1305125824417E+01  0.0000000000000E+00
 0.1430421601384E+00 -0.1305966536574E+01  0.0000000000000E+00
 0.1787906064519E+00 -0.1307047192347E+01  0.0000000000000E+00
 0.2145310030492E+00 -0.1308367597233E+01  0.0000000000000E+00
 0.2502617394871E+00 -0.1309927513380E+01  0.0000000000000E+00
 0.2859812295354E+00 -0.1311726661042E+01  0.0000000000000E+00
 0.3216878868270E+00 -0.1313764717956E+01  0.0000000000000E+00
 0.3573801320760E+00 -0.1316041319855E+01  0.0000000000000E+00
 0.3930563944785E+00 -0.1318556060852E+01  0.0000000000000E+00
 0.4287151000135E+00 -0.1321308492824E+01  0.0000000000000E+00
 0.4643546955381E+00 -0.1324298127456E+01  0.0000000000000E+00
 0.4999736506343E+00 -0.1327524437170E+01  0.0000000000000E+00
 0.5355704370268E+00 -0.1330986853870E+01  0.0000000000000E+00
 0.5711435392633E+00 -0.1334684770220E+01  0.0000000000000E+00
 0.6066914191932E+00 -0.1338617536093E+01  0.0000000000000E+00
 0.6422126167371E+00 -0.1342784470036E+01  0.0000000000000E+00
 0.6777056622642E+00 -0.1347184850797E+01  0.0000000000000E+00
 0.7492269343955E+00 -0.1356770877566E+01  0.0000000000000E+00
 0.7852510917199E+00 -0.1361963113902E+01  0.0000000000000E+00
 0.8212400871220E+00 -0.1367393716423E+01  0.0000000000000E+00
 0.8571924562271E+00 -0.1373061736151E+01  0.0000000000000E+00
 0.8931067551055E+00 -0.1378966188709E+01  0.0000000000000E+00
 0.9289815609321E+00 -0.1385106055236E+01  0.0000000000000E+00
 0.9648154726170E+00 -0.1391480283310E+01  0.0000000000000E+00
 0.1000607111408E+01 -0.1398087787904E+01  0.0000000000000E+00
[...]
<PointData Vectors="'U'">
<DataArray type="Float64" Name="U" NumberOfComponents="2" ComponentName0="U1" ComponentName1="U2" format="ascii">
-0.2000212003732E-37 -0.5117336425023E-37
-0.3478433489138E-37 -0.4662659463324E-37
-0.2032650965261E-37  0.5199310472321E-37
-0.3411715436157E-01 -0.5214124481489E-01
-0.2708634434811E-01 -0.2262878351518E-01
-0.1360511014437E-01 -0.1265020389223E-01
-0.5326835035327E-02 -0.2683325758699E-01
-0.5639498020408E+00 -0.3291509488543E+00
 0.4147815181171E-02 -0.3865299665447E+00
-0.5848289891147E+00 -0.4351046395198E+00
 0.9222152265644E-01 -0.6164488621075E+00
-0.5569866948413E-37 -0.1734542413673E-36
-0.5568042351507E-37 -0.1564380721222E-36
-0.5438561695558E-37 -0.1453860385585E-36
-0.5297236015079E-37 -0.1371614617649E-36
-0.5165314350662E-37 -0.1305814969042E-36
-0.5046306839564E-37 -0.1250670711562E-36
-0.4939620030789E-37 -0.1202917658322E-36
-0.4843740422680E-37 -0.1160548517783E-36
-0.4757094917146E-37 -0.1122251504909E-36
-0.4678282322043E-37 -0.1087128878690E-36
-0.4606115641648E-37 -0.1054543219746E-36
-0.4539607015870E-37 -0.1024027984358E-36
-0.4477938165430E-37 -0.9952328845692E-37
-0.4420430354263E-37 -0.9678890356904E-37
-0.4366518208708E-37 -0.9417860532342E-37
-0.4315728082279E-37 -0.9167565023502E-37
-0.4267660612055E-37 -0.8926650750012E-37
-0.4221976808457E-37 -0.8694008898247E-37
-0.4178387121975E-37 -0.8468719229804E-37
-0.4136675161612E-37 -0.8250027768631E-37
-0.4096705528557E-37 -0.8039587575899E-37
-0.4058148183790E-37 -0.7834481325866E-37
-0.4020852277340E-37 -0.7634208587762E-37
-0.3984671636001E-37 -0.7438334451551E-37
-0.3949475615012E-37 -0.7246472071889E-37
-0.3915146740402E-37 -0.7058273735153E-37
-0.3881578640352E-37 -0.6873423211308E-37
-0.3848674336967E-37 -0.6691630031219E-37
-0.3816344817497E-37 -0.6512624701109E-37
-0.3784507850425E-37 -0.6336154899065E-37
-0.3753086996763E-37 -0.6161982286612E-37
-0.3722010788264E-37 -0.5989879805633E-37
-0.3691212051050E-37 -0.5819629558848E-37
-0.3660627345632E-37 -0.5651021017672E-37
-0.3630196509633E-37 -0.5483849518243E-37
-0.3599862289007E-37 -0.5317915118261E-37
-0.3569570040243E-37 -0.5153021475031E-37
-0.3539267504108E-37 -0.4988975039023E-37
-0.3508904636008E-37 -0.4825584352016E-37
-0.3447808145195E-37 -0.4500011447500E-37
-0.3416984688478E-37 -0.4337451988449E-37
-0.3385921221034E-37 -0.4174793023868E-37
-0.3354577916703E-37 -0.4011846444815E-37
-0.3322917112407E-37 -0.3848423819952E-37
-0.3290903436948E-37 -0.3684336136061E-37
-0.3258503975584E-37 -0.3519393575865E-37
-0.3225688473140E-37 -0.3353405152857E-37
-0.3192429579664E-37 -0.3186178495108E-37
-0.3158703136786E-37 -0.3017519483561E-37
-0.3124488512997E-37 -0.2847231846543E-37
-0.3089768990074E-37 -0.2675116709600E-37
-0.3054532209615E-37 -0.2500971924639E-37
-0.3018770691726E-37 -0.2324591329653E-37
-0.2982482432391E-37 -0.2145763897186E-37
-0.2945671597383E-37 -0.1964272559996E-37
-0.2908349318204E-37 -0.1779892878322E-37
-0.2870534621759E-37 -0.1592390911615E-37
-0.2832255434731E-37 -0.1401521060861E-37
-0.2793510098897E-37 -0.1207002970193E-37
-0.2754435191331E-37 -0.1006769803614E-37
-0.2715076616309E-37 -0.8023596731700E-38
-0.2675506796732E-37 -0.5934531478020E-38
-0.2635827816540E-37 -0.3796897540051E-38
-0.2596165287826E-37 -0.1606635557103E-38
-0.2556672715718E-37  0.6408932388122E-39
-0.2517537105806E-37  0.2951077505532E-38
-0.2478985909799E-37  0.5330288280856E-38
-0.2441295481709E-37  0.7786200244493E-38
-0.2404801053275E-37  0.1032824171693E-37
-0.2369907950296E-37  0.1296824267052E-37
-0.2337102705374E-37  0.1572136533405E-37
-0.2306961312952E-37  0.1860746920362E-37
-0.2280149952458E-37  0.2165308248961E-37
-0.2257417534650E-37  0.2489407078208E-37
-0.2239627040315E-37  0.2837828344219E-37
-0.2228192203412E-37  0.3216280868460E-37
-0.2228420960769E-37  0.3627320573806E-37
-0.2275007907384E-37  0.4039869560520E-37
-0.3389716232490E-01 -0.4602100551926E-01
-0.3338333436480E-01 -0.4228027403974E-01
-0.3286836732146E-01 -0.3957319712676E-01
-0.3240787846370E-01 -0.3743921104343E-01
-0.3199512402994E-01 -0.3566517307821E-01
-0.3161618873912E-01 -0.3413818049897E-01
-0.3125972709319E-01 -0.3279276235301E-01
-0.3091796455769E-01 -0.3158792614291E-01
-0.3058581816597E-01 -0.3049626733819E-01
-0.3025998317738E-01 -0.2949843189617E-01
-0.2993828176504E-01 -0.2858012448900E-01
-0.2961924627139E-01 -0.2773039544382E-01
-0.2930186332853E-01 -0.2694061073540E-01
-0.2898541551657E-01 -0.2620379528332E-01
-0.2866938587086E-01 -0.2551420367886E-01
-0.2835340048974E-01 -0.2486702641423E-01
-0.2803719792998E-01 -0.2425818349197E-01
-0.2772062099046E-01 -0.2368417371530E-01
-0.2740363708845E-01 -0.2314195729421E-01
-0.2677377651779E-01 -0.2215092085429E-01
-0.2645936279231E-01 -0.2169630236875E-01
-0.2614353532270E-01 -0.2126310514216E-01
-0.2582631932698E-01 -0.2084974409327E-01
-0.2550770606860E-01 -0.2045470568340E-01
-0.2518767169360E-01 -0.2007659652595E-01
-0.2486619135271E-01 -0.1971413447511E-01
-0.2454324437558E-01 -0.1936614091155E-01
-0.2421881655286E-01 -0.1903153209875E-01
-0.2389290141078E-01 -0.1870931191854E-01
-0.2356550066616E-01 -0.1839856553448E-01
-0.2323662413250E-01 -0.1809845396622E-01
-0.2290628972383E-01 -0.1780820996049E-01
-0.2257452317274E-01 -0.1752713457307E-01
-0.2224135755603E-01 -0.1725459442434E-01
-0.2190683299806E-01 -0.1699001981391E-01
-0.2157099574724E-01 -0.1673290294530E-01
-0.2123389753511E-01 -0.1648279693492E-01
-0.2089559473427E-01 -0.1623931513680E-01
-0.2055614742738E-01 -0.1600213082783E-01
-0.2021561841015E-01 -0.1577097722909E-01
-0.1987407209049E-01 -0.1554564780707E-01
-0.1953157332365E-01 -0.1532599686281E-01
-0.1918818622467E-01 -0.1511194042275E-01
-0.1884397292467E-01 -0.1490345740430E-01
-0.1849899229994E-01 -0.1470059108116E-01
-0.1815329880089E-01 -0.1450345093609E-01
-0.1780694088707E-01 -0.1431221464193E-01
-0.1745996003071E-01 -0.1412713076041E-01
-0.1711238947434E-01 -0.1394852172371E-01
-0.1676425315057E-01 -0.1377678737362E-01
-0.1641556490252E-01 -0.1361240915167E-01
-0.1606632763925E-01 -0.1345595476250E-01
-0.1571653317312E-01 -0.1330808357215E-01
-0.1536616312045E-01 -0.1316955250559E-01
-0.1501519103008E-01 -0.1304122148408E-01
-0.1466358764583E-01 -0.1292405600572E-01
-0.1431133233180E-01 -0.1281912102530E-01
-0.1395842665393E-01 -0.1272751620906E-01
-0.1324442768261E-01 -0.1258975116141E-01
-0.1288099323373E-01 -0.1254950812586E-01
-0.1251522067724E-01 -0.1253155167770E-01
-0.1214714078979E-01 -0.1253838258911E-01
-0.1177658798812E-01 -0.1257294066455E-01
-0.1140326411274E-01 -0.1263870625004E-01
-0.1102675459173E-01 -0.1273982293194E-01
-0.1064651463290E-01 -0.1288127065683E-01
-0.1026183067093E-01 -0.1306911387940E-01
-0.9871751229228E-02 -0.1331086489186E-01
-0.9474968452200E-02 -0.1361603457628E-01
-0.9069626059386E-02 -0.1399699718759E-01
-0.8653004638921E-02 -0.1447041834305E-01
-0.8221032538315E-02 -0.1505973866520E-01
-0.7767615336816E-02 -0.1579975054528E-01
-0.7284058516281E-02 -0.1674556356474E-01
-0.6760166429163E-02 -0.1799144301788E-01
-0.6192770582880E-02 -0.1971403253741E-01
-0.5632115011404E-02 -0.2229270983903E-01
-0.1660426167262E+00 -0.1632852192782E+00
-0.2454325198398E+00 -0.2438587730342E+00
-0.3145301325389E+00 -0.2952638459898E+00
-0.3743273113063E+00 -0.3277815561577E+00
-0.4260957415879E+00 -0.3473193521560E+00
-0.4704905260910E+00 -0.3582965640407E+00
-0.5081828895616E+00 -0.3631775420840E+00
-0.5397235537678E+00 -0.3634417060814E+00
-0.5654914276473E+00 -0.3603963543542E+00
-0.5858277552244E+00 -0.3550203795193E+00
-0.6011180742505E+00 -0.3481064595231E+00
-0.6117221545234E+00 -0.3409818001034E+00
-0.6182518450346E+00 -0.3336686178963E+00
-0.6212262478875E+00 -0.3260483209139E+00
-0.6206370234421E+00 -0.3189212855262E+00
-0.6163633966031E+00 -0.3133328599025E+00
-0.6083795153821E+00 -0.3104129807654E+00
-0.5968185374952E+00 -0.3112781320085E+00
-0.5819647660124E+00 -0.3170880064112E+00
-0.5547361152213E+00 -0.3372054539778E+00
-0.5447752242115E+00 -0.3474550590711E+00
-0.5340811035176E+00 -0.3599361036836E+00
-0.5226109699126E+00 -0.3748241436539E+00
-0.5102877065366E+00 -0.3923620238100E+00
-0.4970027019741E+00 -0.4128567930760E+00
-0.4826243356701E+00 -0.4366884988884E+00
-0.4671936117768E+00 -0.4644258488482E+00
-0.4509918595763E+00 -0.4969638061191E+00
-0.4341845936735E+00 -0.5355716605434E+00
-0.4168559908248E+00 -0.5824194773686E+00
-0.3983450234218E+00 -0.6420698342485E+00
-0.3791108188030E+00 -0.7148163195871E+00
-0.3613168347305E+00 -0.7940880787869E+00
-0.3464402506139E+00 -0.8741519637471E+00
-0.3349510736912E+00 -0.9514943503901E+00
-0.3268444348492E+00 -0.1023563889321E+01
-0.3218745698123E+00 -0.1088404078973E+01
-0.3196368402915E+00 -0.1144479533609E+01
-0.3196001014419E+00 -0.1190578538410E+01
-0.3210991864771E+00 -0.1225766025437E+01
-0.3233327727101E+00 -0.1249408372044E+01
-0.3255080900854E+00 -0.1261111116196E+01
-0.3268631464390E+00 -0.1260692530781E+01
-0.3266598568431E+00 -0.1248177824169E+01
-0.3241817995173E+00 -0.1223798165431E+01
-0.3187368661889E+00 -0.1187996042160E+01
-0.3096668353087E+00 -0.1141437089923E+01
-0.2963685257287E+00 -0.1085025960630E+01
-0.2783393186339E+00 -0.1019932853724E+01
-0.2552699962388E+00 -0.9476254395580E+00
-0.2272259536575E+00 -0.8699014101834E+00
-0.1949699056892E+00 -0.7889200292433E+00
-0.1603017124363E+00 -0.7072922568591E+00
-0.1252835123716E+00 -0.6287862333661E+00
-0.9313429152008E-01 -0.5599268190066E+00
-0.6548845378039E-01 -0.5039966983466E+00
-0.4071321329080E-01 -0.4581134661759E+00
-0.1759684900907E-01 -0.4193490679533E+00
 0.4984309231844E-01 -0.3287141686893E+00
 0.9150794443653E-01 -0.2855069669716E+00
 0.1297503395054E+00 -0.2529960873250E+00
 0.1646593407373E+00 -0.2288983658367E+00
 0.1966536331487E+00 -0.2119353285273E+00
 0.2263729998417E+00 -0.2017889692150E+00
 0.2537885802408E+00 -0.1983278498160E+00
 0.2779505479241E+00 -0.2016142916426E+00
 0.2970847690434E+00 -0.2089774931298E+00
 0.3103812296455E+00 -0.2176353373835E+00
 0.3174309808644E+00 -0.2266487811532E+00
 0.3179546111684E+00 -0.2348081796457E+00
 0.3117212232511E+00 -0.2409691649837E+00
 0.2984207551457E+00 -0.2438662839868E+00
 0.2776194419122E+00 -0.2420121749718E+00
 0.2486705331430E+00 -0.2331951901832E+00
 0.2107876852373E+00 -0.2135652995561E+00
 0.1626347614113E+00 -0.1777420061742E+00
 0.1028506702419E+00 -0.1163741006524E+00
-0.7026657709720E-03 -0.1234171185604E-02
-0.1179947895097E-02 -0.2129654573102E-02
-0.1597678253713E-02 -0.2964274571633E-02
-0.1980554164944E-02 -0.3759841575563E-02
-0.2345479223894E-02 -0.4531017778118E-02
-0.2700275612638E-02 -0.5285216800236E-02
-0.3050428939785E-02 -0.6026867314990E-02
-0.3399488870371E-02 -0.6758916024534E-02
-0.3749970887814E-02 -0.7483466569131E-02
-0.4103652568004E-02 -0.8202152193765E-02
-0.4461804603890E-02 -0.8916350171102E-02
-0.4825322388709E-02 -0.9627319819000E-02
-0.5194828162932E-02 -0.1033632205234E-01
-0.5570737148690E-02 -0.1104470746660E-01
-0.5953283246923E-02 -0.1175396355338E-01
-0.6342615160175E-02 -0.1246593754180E-01
-0.6738764985334E-02 -0.1318289704311E-01
-0.7141673401779E-02 -0.1390788286394E-01
-0.7551237411280E-02 -0.1464566097091E-01
-0.7968728716756E-02 -0.1540505410345E-01
-0.8398675291435E-02 -0.1619662066076E-01
-0.8846497524850E-02 -0.1702508733317E-01
-0.9316267997416E-02 -0.1789012775479E-01
-0.9810667499773E-02 -0.1879006251858E-01
-0.1033175899801E-01 -0.1972405835046E-01
-0.1088169213822E-01 -0.2069292832895E-01
-0.1146316513567E-01 -0.2169922739832E-01
-0.1207973480580E-01 -0.2274718459223E-01
-0.1273610130095E-01 -0.2384260314368E-01
-0.1343838846915E-01 -0.2499229242988E-01
-0.1419393626539E-01 -0.2620269665263E-01
-0.1501099771408E-01 -0.2748104336249E-01
-0.1589953281138E-01 -0.2883960066525E-01
-0.1687266299297E-01 -0.3029645884829E-01
-0.1794839453391E-01 -0.3187793679478E-01
-0.1915201453437E-01 -0.3362346093722E-01
-0.2052436007839E-01 -0.3559682541411E-01
-0.2212494588755E-01 -0.3790839628367E-01
-0.2412382766018E-01 -0.4078248487089E-01
-0.2664781358248E-01 -0.4491310147665E-01
-0.1060758241270E-01 -0.2132326163156E-01
-0.1178871383623E-01 -0.1830877091305E-01
-0.1250398641258E-01 -0.1629835078966E-01
-0.1286805481708E-01 -0.1472797179079E-01
-0.1302438983228E-01 -0.1341795574471E-01
-0.1302454141190E-01 -0.1228179050588E-01
-0.1290422566454E-01 -0.1127071014188E-01
-0.1268632991865E-01 -0.1035540565644E-01
-0.1238785476834E-01 -0.9516745533666E-02
-0.1202196145271E-01 -0.8741711372104E-02
-0.1159942772575E-01 -0.8021293469928E-02
-0.1112988673884E-01 -0.7349876673839E-02
-0.1062277133546E-01 -0.6723846172599E-02
-0.1008662914695E-01 -0.6139478491375E-02
-0.9528780478595E-02 -0.5593086954806E-02
-0.8955601154080E-02 -0.5081570599755E-02
-0.8372798661580E-02 -0.4602543804548E-02
-0.7785619395070E-02 -0.4154484999201E-02
-0.7199076047361E-02 -0.3736947275844E-02
-0.6618157144528E-02 -0.3350681922919E-02
-0.6047895209552E-02 -0.2997294948691E-02
-0.5493033113657E-02 -0.2677814464529E-02
-0.4957058214846E-02 -0.2390224525141E-02
-0.4441644298923E-02 -0.2129572446192E-02
-0.3947823383212E-02 -0.1892379447165E-02
-0.3476625723178E-02 -0.1676205616143E-02
-0.3029090914568E-02 -0.1479141116121E-02
-0.2606239752712E-02 -0.1299610788255E-02
-0.2209153231013E-02 -0.1136300756087E-02
-0.1838920384935E-02 -0.9880606603526E-03
-0.1496687369786E-02 -0.8538668098891E-03
-0.1183681584939E-02 -0.7327799330649E-03
-0.9012337868010E-03 -0.6239022560060E-03
-0.6508176111970E-03 -0.5263348284374E-03
-0.4341009597984E-03 -0.4391221242444E-03
-0.2530143440419E-03 -0.3611695858413E-03
-0.1098892366658E-03 -0.2911096805735E-03
-0.7579692432388E-05 -0.2270164357186E-03
 0.4987326759442E-04 -0.1657386247885E-03
 0.5684519937370E-04 -0.1018352609157E-03
-0.5801922767022E+00 -0.4497828681917E+00
-0.5750993301182E+00 -0.4654360163062E+00
-0.5694325603577E+00 -0.4819465673948E+00
-0.5631329086790E+00 -0.4992415734951E+00
-0.5561456656943E+00 -0.5172483966669E+00
-0.5484163018367E+00 -0.5358843248083E+00
-0.5398902526942E+00 -0.5550520968446E+00
-0.5305140401470E+00 -0.5746384789232E+00
-0.5202370147431E+00 -0.5945127555240E+00
-0.5090136827610E+00 -0.6145259444069E+00
-0.4968062482936E+00 -0.6345126898468E+00
-0.4835868358251E+00 -0.6542943114901E+00
-0.4693392577880E+00 -0.6736825381074E+00
-0.4540601767823E+00 -0.6924837201228E+00
-0.4377596204598E+00 -0.7105031122515E+00
-0.4204609054630E+00 -0.7275489130683E+00
-0.4022001446201E+00 -0.7434358826488E+00
-0.3830254434047E+00 -0.7579885499093E+00
-0.3629958993199E+00 -0.7710440023274E+00
-0.3421804947761E+00 -0.7824542545126E+00
-0.3206569526090E+00 -0.7920882311977E+00
-0.2985105969975E+00 -0.7998334342774E+00
-0.2758332511639E+00 -0.8055973628939E+00
-0.2527221611738E+00 -0.8093085294712E+00
-0.2292789728342E+00 -0.8109172221673E+00
-0.2056087471106E+00 -0.8103960663710E+00
-0.1818189839787E+00 -0.8077404036859E+00
-0.1580186314352E+00 -0.8029685040494E+00
-0.1343170074279E+00 -0.7961215958408E+00
-0.1108226624022E+00 -0.7872637245824E+00
-0.8764212283630E-01 -0.7764813651313E+00
-0.6487851150286E-01 -0.7638826046024E+00
-0.4263008997690E-01 -0.7495955196464E+00
-0.2098903607610E-01 -0.7337656017845E+00
-0.3997995690200E-04 -0.7165548546641E+00
 0.2014173718039E-01 -0.6981411088768E+00
 0.3949258519762E-01 -0.6787152455449E+00
 0.5796401561410E-01 -0.6584787711514E+00
 0.7552739286531E-01 -0.6376410230219E+00
-0.5752053423461E+00 -0.4189819401412E+00
-0.5632919801313E+00 -0.4014062667237E+00
-0.5493914395466E+00 -0.3824154978081E+00
-0.5337763649314E+00 -0.3621837632448E+00
-0.5166271515156E+00 -0.3408961149793E+00
-0.4980469188289E+00 -0.3187218482177E+00
-0.4780587894766E+00 -0.2958133849819E+00
-0.4566223725787E+00 -0.2723125049897E+00
-0.4336354244584E+00 -0.2483771298745E+00
-0.4090108710874E+00 -0.2241981130262E+00
-0.3826759915995E+00 -0.1999907075294E+00
-0.3544987637780E+00 -0.1759942967435E+00
-0.3242858917128E+00 -0.1524727019314E+00
-0.2917747507318E+00 -0.1297021701050E+00
-0.2566381198723E+00 -0.1079608277250E+00
-0.2184975101796E+00 -0.8751815533745E-01
-0.1769361791755E+00 -0.6862056858359E-01
-0.1315096510118E+00 -0.5146680010639E-01
-0.8173870537277E-01 -0.3616264562765E-01
 0.1014475794928E+00 -0.5776377736269E+00
 0.1090745685685E+00 -0.5393334189496E+00
 0.1153818484561E+00 -0.5014301900689E+00
 0.1205777109913E+00 -0.4640142896999E+00
 0.1247669691561E+00 -0.4271628572418E+00
 0.1279788192433E+00 -0.3909318722325E+00
 0.1301757633107E+00 -0.3553608561895E+00
 0.1312698229891E+00 -0.3204817735097E+00
 0.1311211810858E+00 -0.2863534524208E+00
 0.1296184413822E+00 -0.2530756676700E+00
 0.1266798509036E+00 -0.2207770060206E+00
 0.1221580166363E+00 -0.1896239813967E+00
 0.1158336936347E+00 -0.1598257362279E+00
 0.1074055631391E+00 -0.1316258799290E+00
 0.9649297349855E-01 -0.1052972480165E+00
 0.8264757585083E-01 -0.8113803524023E-01
 0.6535764077034E-01 -0.5946723728848E-01
 0.4403897695468E-01 -0.4061719834422E-01
 0.1799986151483E-01 -0.2491877540960E-01
-0.5915338537905E+00 -0.4304648650968E+00
-0.5972354432662E+00 -0.4251859294260E+00
-0.6018665604717E+00 -0.4193967718034E+00
-0.6054290185203E+00 -0.4132034856667E+00
-0.6079459882411E+00 -0.4067030502101E+00
-0.6094535437446E+00 -0.3999899127773E+00
-0.6099974923129E+00 -0.3931576471832E+00
-0.6096326143583E+00 -0.3862990886819E+00
-0.6084225136141E+00 -0.3795055435408E+00
-0.6064394226934E+00 -0.3728654437426E+00
-0.6037636387393E+00 -0.3664626731913E+00
-0.6004824738501E+00 -0.3603747677264E+00
-0.5966887338257E+00 -0.3546711848741E+00
-0.5924788421114E+00 -0.3494118272909E+00
-0.5879508163295E+00 -0.3446459629980E+00
-0.5832024087203E+00 -0.3404116177148E+00
-0.5783297215401E+00 -0.3367353306439E+00
-0.5734274635557E+00 -0.3336323278118E+00
-0.5685898893107E+00 -0.3311051927628E+00
 0.1002575452954E+00 -0.6160169681655E+00
 0.1074879820436E+00 -0.6140406467890E+00
 0.1137629504021E+00 -0.6105043256058E+00
 0.1189734547500E+00 -0.6054081709083E+00
 0.1230183956555E+00 -0.5987550207451E+00
 0.1257980049965E+00 -0.5905600330663E+00
 0.1272123509339E+00 -0.5808556335022E+00
 0.1271625993322E+00 -0.5696962437630E+00
 0.1255539052113E+00 -0.5571627188932E+00
 0.1222997278864E+00 -0.5433666755675E+00
 0.1173276774807E+00 -0.5284546176425E+00
 0.1105872114626E+00 -0.5126116251145E+00
 0.1020596221469E+00 -0.4960641707746E+00
 0.9177077814873E-01 -0.4790813252342E+00
 0.7980688290662E-01 -0.4619730995844E+00
 0.6633282893002E-01 -0.4450838358456E+00
 0.5161046507783E-01 -0.4287769530390E+00
 0.3601022363901E-01 -0.4134057341715E+00
 0.1999374918111E-01 -0.3992607830183E+00
-0.5898942195586E-03 -0.1026541760773E-02
-0.1101510247573E-02 -0.1976260336645E-02
-0.1520737275184E-02 -0.2822402371905E-02
-0.1908552509481E-02 -0.3627914102859E-02
-0.2276333650957E-02 -0.4405350614766E-02
-0.2633716292125E-02 -0.5163757175601E-02
-0.2986088049934E-02 -0.5908156716556E-02
-0.3337189685319E-02 -0.6641927159023E-02
-0.3689586140120E-02 -0.7367458867750E-02
-0.4045096127195E-02 -0.8086591651853E-02
-0.4405007226239E-02 -0.8800856232190E-02
-0.4770219564334E-02 -0.9511629582286E-02
-0.5141349362099E-02 -0.1022026495312E-01
-0.5518796531970E-02 -0.1092818685098E-01
-0.5902769633666E-02 -0.1163694275973E-01
-0.6293379378136E-02 -0.1234842902390E-01
-0.6690599922946E-02 -0.1306494988855E-01
-0.7094268724357E-02 -0.1378957573759E-01
-0.7504192874728E-02 -0.1452663950188E-01
-0.7921756501875E-02 -0.1528193782589E-01
-0.8351900643318E-02 -0.1606270621924E-01
-0.8800542718791E-02 -0.1687376959592E-01
-0.9272012566237E-02 -0.1771663170452E-01
-0.9769017262483E-02 -0.1859119998882E-01
-0.1029355967199E-01 -0.1949739923735E-01
-0.1084775689114E-01 -0.2043603835507E-01
-0.1143435953942E-01 -0.2140912292155E-01
-0.1205709266365E-01 -0.2241992837698E-01
-0.1272097253664E-01 -0.2347293694745E-01
-0.1343247102108E-01 -0.2457384546898E-01
-0.1419901346304E-01 -0.2572894645881E-01
-0.1502895217185E-01 -0.2694456332778E-01
-0.1593275823544E-01 -0.2823010082573E-01
-0.1692449792795E-01 -0.2959936363752E-01