<VTKFile type="UnstructuredGrid" version="1,0" byte_order="LittleEndian">
<UnstructuredGrid>
<Piece NumberOfPoints="5802" NumberOfCells="5680">
<Points>
<DataArray type="Float64" NumberOfComponents="3" format="ascii">
-0.1100000000000E+01 -0.4731587125634E+01  0.0000000000000E+00
 0.0000000000000E+00 -0.4731587125634E+01  0.0000000000000E+00
 0.1100000000000E+01 -0.4731587125634E+01  0.0000000000000E+00
-0.1191315091097E+01 -0.1825930012610E+01  0.0000000000000E+00
-0.5956575398395E+00 -0.1755172846926E+01  0.0000000000000E+00
 0.5956575512579E+00 -0.1755172847830E+01  0.0000000000000E+00
 0.1191315091097E+01 -0.1825930012610E+01  0.0000000000000E+00
-0.1487255332335E+01  0.3711246317436E+00  0.0000000000000E+00
 0.1487255329206E+01  0.3711246337271E+00  0.0000000000000E+00
-0.6187500000000E+00 -0.4973806884503E+00  0.0000000000000E+00
 0.6187500000000E+00 -0.4973806884503E+00  0.0000000000000E+00
-0.1072500000000E+01 -0.4731587125634E+01  0.0000000000000E+00
-0.1045000000000E+01 -0.4731587125634E+01  0.0000000000000E+00
-0.1017500000000E+01 -0.4731587125634E+01  0.0000000000000E+00
-0.9900000000000E+00 -0.4731587125634E+01  0.0000000000000E+00
-0.9625000000000E+00 -0.4731587125634E+01  0.0000000000000E+00
-0.9350000000000E+00 -0.4731587125634E+01  0.0000000000000E+00
-0.9075000000000E+00 -0.4731587125634E+01  0.0000000000000E+00
-0.8800000000000E+00 -0.4731587125634E+01  0.0000000000000E+00
-0.8525000000000E+00 -0.4731587125634E+01  0.0000000000000E+00
-0.8250000000000E+00 -0.4731587125634E+01  0.0000000000000E+00
-0.7975000000000E+00 -0.4731587125634E+01  0.0000000000000E+00
-0.7700000000000E+00 -0.4731587125634E+01  0.0000000000000E+00
-0.7425000000000E+00 -0.4731587125634E+01  0.0000000000000E+00
-0.7150000000000E+00 -0.4731587125634E+01  0.0000000000000E+00
-0.6875000000000E+00 -0.4731587125634E+01  0.0000000000000E+00
-0.6600000000000E+00 -0.4731587125634E+01  0.0000000000000E+00
-0.6325000000000E+00 -0.4731587125634E+01  0.0000000000000E+00
-0.6050000000000E+00 -0.4731587125634E+01  0.0000000000000E+00
-0.5775000000000E+00 -0.4731587125634E+01  0.0000000000000E+00
-0.5500000000000E+00 -0.4731587125634E+01  0.0000000000000E+00
-0.5225000000000E+00 -0.4731587125634E+01  0.0000000000000E+00
-0.4950000000000E+00 -0.4731587125634E+01  0.0000000000000E+00
-0.4675000000000E+00 -0.4731587125634E+01  0.0000000000000E+00
-0.4400000000000E+00 -0.4731587125634E+01  0.0000000000000E+00
-0.4125000000000E+00 -0.4731587125634E+01  0.0000000000000E+00
-0.3850000000000E+00 -0.4731587125634E+01  0.0000000000000E+00
-0.3575000000000E+00 -0.4731587125634E+01  0.0000000000000E+00
-0.3300000000000E+00 -0.4731587125634E+01  0.0000000000000E+00
-0.3025000000000E+00 -0.4731587125634E+01  0.0000000000000E+00
-0.2750000000000E+00 -0.4731587125634E+01  0.0000000000000E+00
-0.2475000000000E+00 -0.4731587125634E+01  0.0000000000000E+00
-0.2200000000000E+00 -0.4731587125634E+01  0.0000000000000E+00
-0.1925000000000E+00 -0.4731587125634E+01  0.0000000000000E+00
-0.1650000000000E+00 -0.4731587125634E+01  0.0000000000000E+00
-0.1375000000000E+00 -0.4731587125634E+01  0.0000000000000E+00
-0.1100000000000E+00 -0.4731587125634E+01  0.0000000000000E+00
-0.8250000000000E-01 -0.4731587125634E+01  0.0000000000000E+00
-0.5500000000000E-01 -0.4731587125634E+01  0.0000000000000E+00
-0.2750000000000E-01 -0.4731587125634E+01  0.0000000000000E+00
 0.2750000000000E-01 -0.4731587125634E+01  0.0000000000000E+00
 0.5500000000000E-01 -0.4731587125634E+01  0.0000000000000E+00
 0.8250000000000E-01 -0.4731587125634E+01  0.0000000000000E+00
 0.1100000000000E+00 -0.4731587125634E+01  0.0000000000000E+00
 0.1375000000000E+00 -0.4731587125634E+01  0.0000000000000E+00
 0.1650000000000E+00 -0.4731587125634E+01  0.0000000000000E+00
 0.1925000000000E+00 -0.4731587125634E+01  0.0000000000000E+00
 0.2200000000000E+00 -0.4731587125634E+01  0.0000000000000E+00
 0.2475000000000E+00 -0.4731587125634E+01  0.0000000000000E+00
 0.2750000000000E+00 -0.4731587125634E+01  0.0000000000000E+00
 0.3025000000000E+00 -0.4731587125634E+01  0.0000000000000E+00
 0.3300000000000E+00 -0.4731587125634E+01  0.0000000000000E+00
 0.3575000000000E+00 -0.4731587125634E+01  0.0000000000000E+00
 0.3850000000000E+00 -0.4731587125634E+01  0.0000000000000E+00
 0.4125000000000E+00 -0.4731587125634E+01  0.0000000000000E+00
 0.4400000000000E+00 -0.4731587125634E+01  0.0000000000000E+00
 0.4675000000000E+00 -0.4731587125634E+01  0.0000000000000E+00
 0.4950000000000E+00 -0.4731587125634E+01  0.0000000000000E+00
 0.5225000000000E+00 -0.4731587125634E+01  0.0000000000000E+00
 0.5500000000000E+00 -0.4731587125634E+01  0.0000000000000E+00
 0.5775000000000E+00 -0.4731587125634E+01  0.0000000000000E+00
 0.6050000000000E+00 -0.4731587125634E+01  0.0000000000000E+00
 0.6325000000000E+00 -0.4731587125634E+01  0.0000000000000E+00
 0.6600000000000E+00 -0.4731587125634E+01  0.0000000000000E+00
 0.6875000000000E+00 -0.4731587125634E+01  0.0000000000000E+00
 0.7150000000000E+00 -0.4731587125634E+01  0.0000000000000E+00
 0.7425000000000E+00 -0.4731587125634E+01  0.0000000000000E+00
 0.7700000000000E+00 -0.4731587125634E+01  0.0000000000000E+00
 0.7975000000000E+00 -0.4731587125634E+01  0.0000000000000E+00
 0.8250000000000E+00 -0.4731587125634E+01  0.0000000000000E+00
 0.8525000000000E+00 -0.4731587125634E+01  0.0000000000000E+00
 0.8800000000000E+00 -0.4731587125634E+01  0.0000000000000E+00
 0.9075000000000E+00 -0.4731587125634E+01  0.0000000000000E+00
 0.9350000000000E+00 -0.4731587125634E+01  0.0000000000000E+00
 0.9625000000000E+00 -0.4731587125634E+01  0.0000000000000E+00
 0.9900000000000E+00 -0.4731587125634E+01  0.0000000000000E+00
 0.1017500000000E+01 -0.4731587125634E+01  0.0000000000000E+00
 0.1045000000000E+01 -0.4731587125634E+01  0.0000000000000E+00
 0.1072500000000E+01 -0.4731587125634E+01  0.0000000000000E+00
-0.1161675590434E+01 -0.1821293974842E+01  0.0000000000000E+00
-0.1132018469080E+01 -0.1816772081031E+01  0.0000000000000E+00
-0.1102344135527E+01 -0.1812364599475E+01  0.0000000000000E+00
-0.1072653001422E+01 -0.1808071792594E+01  0.0000000000000E+00
-0.1042945459471E+01 -0.1803893913795E+01  0.0000000000000E+00
-0.1013221952450E+01 -0.1799831217138E+01  0.0000000000000E+00
-0.9834829017084E+00 -0.1795883946982E+01  0.0000000000000E+00
-0.9537287316532E+00 -0.1792052341512E+01  0.0000000000000E+00
-0.9239598612408E+00 -0.1788336631619E+01  0.0000000000000E+00
-0.8941767210493E+00 -0.1784737043031E+01  0.0000000000000E+00
-0.8643797539566E+00 -0.1781253796152E+01  0.0000000000000E+00
-0.8345693957871E+00 -0.1777887103664E+01  0.0000000000000E+00
-0.8047460850418E+00 -0.1774637171701E+01  0.0000000000000E+00
-0.7749102599775E+00 -0.1771504199483E+01  0.0000000000000E+00
-0.7450623578572E+00 -0.1768488379244E+01  0.0000000000000E+00
-0.7152028352234E+00 -0.1765589898169E+01  0.0000000000000E+00
-0.6853321404180E+00 -0.1762808935500E+01  0.0000000000000E+00
-0.6554507240472E+00 -0.1760145663610E+01  0.0000000000000E+00
-0.6255590388957E+00 -0.1757600247935E+01  0.0000000000000E+00
-0.5659320403842E+00 -0.1752877555980E+01  0.0000000000000E+00
-0.5361977827764E+00 -0.1750699115345E+01  0.0000000000000E+00
-0.5064551822954E+00 -0.1748637656849E+01  0.0000000000000E+00
-0.4767046834532E+00 -0.1746693307634E+01  0.0000000000000E+00
-0.4469467825907E+00 -0.1744866190914E+01  0.0000000000000E+00
-0.4171818756954E+00 -0.1743156416506E+01  0.0000000000000E+00
-0.3874104734057E+00 -0.1741564093885E+01  0.0000000000000E+00
-0.3576330176963E+00 -0.1740089321191E+01  0.0000000000000E+00
-0.3278499563594E+00 -0.1738732189839E+01  0.0000000000000E+00
-0.2980617833702E+00 -0.1737492785992E+01  0.0000000000000E+00
-0.2682689204519E+00 -0.1736371185422E+01  0.0000000000000E+00
-0.2384718656336E+00 -0.1735367459648E+01  0.0000000000000E+00
-0.2086710716336E+00 -0.1734481671049E+01  0.0000000000000E+00
-0.1788669979735E+00 -0.1733713874997E+01  0.0000000000000E+00
-0.1490601279746E+00 -0.1733064120054E+01  0.0000000000000E+00
-0.1192509059245E+00 -0.1732532446511E+01  0.0000000000000E+00
-0.8943981808141E-01 -0.1732118888112E+01  0.0000000000000E+00
-0.5962732433722E-01 -0.1731823470688E+01  0.0000000000000E+00
-0.2981389296327E-01 -0.1731646212812E+01  0.0000000000000E+00
 0.5727055524263E-08 -0.1731587125634E+01  0.0000000000000E+00
 0.2981390441730E-01 -0.1731646212857E+01  0.0000000000000E+00
 0.5962733579097E-01 -0.1731823470779E+01  0.0000000000000E+00
 0.8943982953471E-01 -0.1732118888248E+01  0.0000000000000E+00
 0.1192509173772E+00 -0.1732532446692E+01  0.0000000000000E+00
 0.1490601394265E+00 -0.1733064120281E+01  0.0000000000000E+00
 0.1788670094244E+00 -0.1733713875269E+01  0.0000000000000E+00
 0.2086710830833E+00 -0.1734481671367E+01  0.0000000000000E+00
 0.2384718770819E+00 -0.1735367460011E+01  0.0000000000000E+00
 0.2682689318987E+00 -0.1736371185830E+01  0.0000000000000E+00
 0.2980617948153E+00 -0.1737492786445E+01  0.0000000000000E+00
 0.3278499678026E+00 -0.1738732190338E+01  0.0000000000000E+00
 0.3576330291375E+00 -0.1740089321735E+01  0.0000000000000E+00
 0.3874104848446E+00 -0.1741564094474E+01  0.0000000000000E+00
 0.4171818871319E+00 -0.1743156417141E+01  0.0000000000000E+00
 0.4469467940246E+00 -0.1744866191594E+01  0.0000000000000E+00
 0.4767046948843E+00 -0.1746693308359E+01  0.0000000000000E+00
 0.5064551937236E+00 -0.1748637657619E+01  0.0000000000000E+00
 0.5361977942015E+00 -0.1750699116160E+01  0.0000000000000E+00
 0.5659320518060E+00 -0.1752877556840E+01  0.0000000000000E+00
 0.6255590497397E+00 -0.1757600248837E+01  0.0000000000000E+00
 0.6554507343169E+00 -0.1760145664505E+01  0.0000000000000E+00
 0.6853321501138E+00 -0.1762808936384E+01  0.0000000000000E+00
 0.7152028443456E+00 -0.1765589899036E+01  0.0000000000000E+00
 0.7450623664059E+00 -0.1768488380091E+01  0.0000000000000E+00
 0.7749102679531E+00 -0.1771504200305E+01  0.0000000000000E+00
 0.8047460924447E+00 -0.1774637172493E+01  0.0000000000000E+00
 0.8345694026177E+00 -0.1777887104422E+01  0.0000000000000E+00
[...]
<PointData Vectors="'U'">
<DataArray type="Float64" Name="U" NumberOfComponents="2" ComponentName0="U1" ComponentName1="U2" format="ascii">
 0.1535472352726E-37  0.3857486380059E-37
-0.2250756043824E-37 -0.1054470231916E-37
-0.4038165150338E-38  0.1010128289538E-37
 0.3210748646333E-01  0.1269611415601E-01
 0.3280973091288E-01  0.1742725982963E-02
 0.3784554059727E-01 -0.1996716974772E-01
 0.4464359731187E-01 -0.4411206208611E-01
 0.5326183033101E+00  0.1937392427238E+00
 0.9225701742864E+00 -0.6796800623853E+00
 0.2442428399111E+00 -0.4534131346330E-01
 0.5109734279196E+00 -0.3863552515943E+00
 0.1536929390103E-37  0.7108502051653E-37
 0.1501353028916E-37  0.6288259884072E-37
 0.1372710715891E-37  0.5762264517214E-37
 0.1231758288934E-37  0.5357540679151E-37
 0.1092817947857E-37  0.5018141622914E-37
 0.9585247922572E-38  0.4719609060770E-37
 0.8290357478068E-38  0.4449098216688E-37
 0.7039665557500E-38  0.4199032108421E-37
 0.5828564005402E-38  0.3964571137045E-37
 0.4652811718216E-38  0.3742438508362E-37
 0.3508748179457E-38  0.3530313453582E-37
 0.2393265093519E-38  0.3326492116868E-37
 0.1303724787049E-38  0.3129686231740E-37
 0.2378780858463E-39  0.2938897678897E-37
-0.8062055378240E-39  0.2753337161405E-37
-0.1830194416652E-38  0.2572369679280E-37
-0.2835539438874E-38  0.2395476926911E-37
-0.3823509376121E-38  0.2222230726754E-37
-0.4795217788975E-38  0.2052273990401E-37
-0.5751551891353E-38  0.1885311331513E-37
-0.6693636885819E-38  0.1720919551284E-37
-0.7622075623129E-38  0.1559003725118E-37
-0.8537562869567E-38  0.1399379026848E-37
-0.9440709837953E-38  0.1241886643475E-37
-0.1033206089251E-37  0.1086390521431E-37
-0.1121209983697E-37  0.9327743644246E-38
-0.1208125579528E-37  0.7809388026688E-38
-0.1293990782913E-37  0.6307995506893E-38
-0.1378838899220E-37  0.4822856025451E-38
-0.1462698978291E-37  0.3353377278190E-38
-0.1545596088039E-37  0.1899074876152E-38
-0.1627551566021E-37  0.4595596154800E-39
-0.1708583214030E-37 -0.9654688211289E-39
-0.1788705467715E-37 -0.2376230046113E-38
-0.1867929538394E-37 -0.3772869607067E-38
-0.1946263522163E-37 -0.5155462840673E-38
-0.2023712493791E-37 -0.6524021276460E-38
-0.2100278573622E-37 -0.7878494867483E-38
-0.2175960976936E-37 -0.9218776054662E-38
-0.2324657250070E-37 -0.1185605822209E-37
-0.2397655198886E-37 -0.1315257717545E-37
-0.2469737593144E-37 -0.1443394276050E-37
-0.2540889186981E-37 -0.1569978932794E-37
-0.2611091713542E-37 -0.1694970203459E-37
-0.2680323788568E-37 -0.1818321779562E-37
-0.2748560787103E-37 -0.1939982217887E-37
-0.2815774682443E-37 -0.2059895086944E-37
-0.2881933855249E-37 -0.2177998551369E-37
-0.2947002851672E-37 -0.2294225161367E-37
-0.3010942089280E-37 -0.2408501721200E-37
-0.3073707512409E-37 -0.2520748383275E-37
-0.3135250146572E-37 -0.2630878722011E-37
-0.3195515589199E-37 -0.2738798632289E-37
-0.3254443364688E-37 -0.2844405744245E-37
-0.3311966133897E-37 -0.2947588895225E-37
-0.3368008765428E-37 -0.3048226305185E-37
-0.3422487132121E-37 -0.3146185431807E-37
-0.3475306827430E-37 -0.3241321209074E-37
-0.3526364378300E-37 -0.3333474845608E-37
-0.3575590407385E-37 -0.3421517973097E-37
-0.3622797340166E-37 -0.3506166973791E-37
-0.3667825042310E-37 -0.3587208681406E-37
-0.3710485924646E-37 -0.3664409244977E-37
-0.3750557929296E-37 -0.3737513213112E-37
-0.3787774435697E-37 -0.3806244059785E-37
-0.3821809938161E-37 -0.3870307662532E-37
-0.3852259328878E-37 -0.3929401149002E-37
-0.3878607208044E-37 -0.3983232850475E-37
-0.3900181539402E-37 -0.4031563411014E-37
-0.3916082599362E-37 -0.4074289690807E-37
-0.3925073818582E-37 -0.4111618185370E-37
-0.3925418984644E-37 -0.4144434864369E-37
-0.3914667613377E-37 -0.4175137119099E-37
-0.3889509212000E-37 -0.4209649313347E-37
-0.3846429447738E-37 -0.4262831649394E-37
-0.3787073707991E-37 -0.4375196184050E-37
-0.3750819739375E-37 -0.4675828357343E-37
-0.4030928300436E-37 -0.5693426391650E-37
 0.3204696967953E-01  0.1193247594623E-01
 0.3201383560059E-01  0.1129187380290E-01
 0.3200179991659E-01  0.1070196511760E-01
 0.3200646949055E-01  0.1013686846652E-01
 0.3202348880574E-01  0.9585504394839E-02
 0.3204957822270E-01  0.9042514218733E-02
 0.3208244855699E-01  0.8505129186152E-02
 0.3212055433661E-01  0.7971840035885E-02
 0.3216286499502E-01  0.7441780387137E-02
 0.3220869623266E-01  0.6914423890840E-02
 0.3225759476448E-01  0.6389428742095E-02
 0.3230926183786E-01  0.5866554818477E-02
 0.3236350276763E-01  0.5345618880084E-02
 0.3242019353919E-01  0.4826469611942E-02
 0.3247925854019E-01  0.4308973924136E-02
 0.3254065582713E-01  0.3793010442077E-02
 0.3260436801611E-01  0.3278466807225E-02
 0.3267040150241E-01  0.2765244457467E-02
 0.3273878694922E-01  0.2253265438730E-02
 0.3288193312107E-01  0.1236136298893E-02
 0.3295686928006E-01  0.7296702315724E-03
 0.3303429301868E-01  0.2236138937810E-03
 0.3311419973167E-01 -0.2821101530016E-03
 0.3319660828819E-01 -0.7876050209527E-03
 0.3328154987626E-01 -0.1292995830579E-02
 0.3336905764261E-01 -0.1798417828065E-02
 0.3345916466326E-01 -0.2304016653108E-02
 0.3355190260879E-01 -0.2809945463888E-02
 0.3364730120426E-01 -0.3316363531981E-02
 0.3374538845757E-01 -0.3823438020541E-02
 0.3384619014870E-01 -0.4331341535175E-02
 0.3394973024837E-01 -0.4840254478839E-02
 0.3405603081135E-01 -0.5350364604350E-02
 0.3416511200059E-01 -0.5861867281220E-02
 0.3427699243453E-01 -0.6374967234983E-02
 0.3439168903806E-01 -0.6889877912874E-02
 0.3450921747514E-01 -0.7406823504179E-02
 0.3462959223090E-01 -0.7926039277771E-02
 0.3475282687971E-01 -0.8447772718029E-02
 0.3487893438638E-01 -0.8972284737774E-02
 0.3500792741139E-01 -0.9499850856497E-02
 0.3513981865137E-01 -0.1003076249222E-01
 0.3527462125149E-01 -0.1056532852366E-01
 0.3541234926325E-01 -0.1110387702310E-01
 0.3555301794318E-01 -0.1164675640749E-01
 0.3569664456119E-01 -0.1219433864493E-01
 0.3584324852536E-01 -0.1274701995854E-01
 0.3599285218675E-01 -0.1330522439912E-01
 0.3614548123841E-01 -0.1386940624449E-01
 0.3630116483255E-01 -0.1444005201625E-01
 0.3645993642333E-01 -0.1501768614435E-01
 0.3662183286948E-01 -0.1560287178740E-01
 0.3678689434553E-01 -0.1619621699914E-01
 0.3695516240142E-01 -0.1679837774961E-01
 0.3712667616068E-01 -0.1741005917409E-01
 0.3730146736839E-01 -0.1803201889480E-01
 0.3747955086590E-01 -0.1866505144480E-01
 0.3766091140308E-01 -0.1930994876979E-01
 0.3803477305055E-01 -0.2064355889327E-01
 0.3822957325838E-01 -0.2133619647312E-01
 0.3842967568981E-01 -0.2204638953244E-01
 0.3863525840902E-01 -0.2277584870073E-01
 0.3884665581526E-01 -0.2352651090450E-01
 0.3906435065968E-01 -0.2430062418348E-01
 0.3928898474837E-01 -0.2510082930333E-01
 0.3952139826797E-01 -0.2593027326382E-01
 0.3976269594817E-01 -0.2679276780231E-01
 0.4001435169619E-01 -0.2769302273810E-01
 0.4027837163823E-01 -0.2863700077495E-01
 0.4055754932171E-01 -0.2963247854661E-01
 0.4085586778314E-01 -0.3068997695894E-01
 0.4117913073035E-01 -0.3182438133455E-01
 0.4153593498073E-01 -0.3305793021655E-01
 0.4193910779221E-01 -0.3442610600986E-01
 0.4240758768286E-01 -0.3599029572172E-01
 0.4296896667071E-01 -0.3786818868795E-01
 0.4365928464897E-01 -0.4032899223210E-01
 0.4116911805321E-01  0.2381335100857E-01
 0.4390175557774E-01  0.3921935903865E-01
 0.4930588603466E-01  0.5696045452213E-01
 0.5880228848909E-01  0.7645802250395E-01
 0.7243779344112E-01  0.9721864451730E-01
 0.8995454395749E-01  0.1185791336045E+00
 0.1111132561606E+00  0.1388815134399E+00
 0.1353828720642E+00  0.1575136177049E+00
 0.1622828577749E+00  0.1746003472286E+00
 0.1915043194598E+00  0.1901812082382E+00
 0.2227958510173E+00  0.2041398821067E+00
 0.2559035110374E+00  0.2162531461507E+00
 0.2905460844609E+00  0.2264046482076E+00
 0.3264369758806E+00  0.2344105149682E+00
 0.3632663037725E+00  0.2399476628900E+00
 0.4006850724583E+00  0.2428023416884E+00
 0.4383902392566E+00  0.2434239773980E+00
 0.4752690757321E+00  0.2373171208144E+00
 0.5079934033391E+00  0.2204350181471E+00
 0.5425231392339E+00  0.1724152452372E+00
 0.5495163376098E+00  0.1500653426724E+00
 0.5541253023685E+00  0.1272158771230E+00
 0.5563451095449E+00  0.1041391545255E+00
 0.5563423136602E+00  0.8107709396610E-01
 0.5548112601323E+00  0.5811949082315E-01
 0.5523175090623E+00  0.3520080699777E-01
 0.5493816234074E+00  0.1212506654470E-01
 0.5465626077993E+00 -0.1144464540215E-01
 0.5444422592149E+00 -0.3598354821320E-01
 0.5436596731724E+00 -0.6213262146201E-01
 0.5445588371857E+00 -0.9064201180908E-01
 0.5471776276680E+00 -0.1226217565341E+00
 0.5519217429226E+00 -0.1601705601987E+00
 0.5590117483312E+00 -0.2035353520698E+00
 0.5681929636881E+00 -0.2501202495281E+00
 0.5794001330790E+00 -0.2976984220357E+00
 0.5926953197804E+00 -0.3448454054425E+00
 0.6081114645225E+00 -0.3905847844836E+00
 0.6256020409163E+00 -0.4342381296805E+00
 0.6450054280065E+00 -0.4753291149798E+00
 0.6660076815310E+00 -0.5134894539693E+00
 0.6882716101192E+00 -0.5484547661948E+00
 0.7114585056413E+00 -0.5800472976211E+00
 0.7352126636886E+00 -0.6081598782007E+00
 0.7591492372337E+00 -0.6327481038054E+00
 0.7828403764280E+00 -0.6538303332018E+00
 0.8057949283048E+00 -0.6714978864653E+00
 0.8274299545551E+00 -0.6859338104570E+00
 0.8470467934108E+00 -0.6973995682914E+00
 0.8638897823815E+00 -0.7060287772148E+00
 0.8774888295040E+00 -0.7116724945573E+00
 0.8879430513853E+00 -0.7141618993242E+00
 0.8957239763342E+00 -0.7134097867441E+00
 0.9015753858398E+00 -0.7095547798410E+00
 0.9063876687114E+00 -0.7030421776022E+00
 0.9110990893959E+00 -0.6947446038747E+00
 0.9160840866382E+00 -0.6863911045595E+00
 0.9203781795430E+00 -0.6806500346325E+00
 0.9212128014598E+00 -0.6848439072706E+00
 0.9115910167471E+00 -0.6926367160884E+00
 0.8940613556877E+00 -0.6972609850044E+00
 0.8706060967131E+00 -0.6976562954538E+00
 0.8428264592448E+00 -0.6953727936867E+00
 0.8111142015633E+00 -0.6894954626006E+00
 0.7760426960603E+00 -0.6796649675998E+00
 0.7381773849392E+00 -0.6657709952186E+00
 0.6979687087218E+00 -0.6476334043736E+00
 0.6557777591650E+00 -0.6249597134673E+00
 0.6118850638260E+00 -0.5975366012994E+00
 0.5664429302933E+00 -0.5648390886959E+00
 0.5196069684667E+00 -0.5256936533629E+00
 0.4718900457284E+00 -0.4782032858623E+00
 0.4239909561846E+00 -0.4222039393316E+00
 0.3752258487670E+00 -0.3614313060750E+00
 0.3233428016378E+00 -0.2968216658811E+00
 0.2642939385653E+00 -0.2266339336671E+00
 0.1904456098844E+00 -0.1420991345270E+00
 0.2333286245312E-03  0.4789760483062E-03
 0.3946431408718E-03  0.8645524020187E-03
 0.5676091685679E-03  0.1246158765671E-02
 0.7654141901737E-03  0.1624613197446E-02
 0.9959927404277E-03  0.2001308252854E-02
 0.1262839838948E-02  0.2376135837956E-02
 0.1568055048880E-02  0.2748596568198E-02
 0.1912748581443E-02  0.3118088558817E-02
 0.2297492973628E-02  0.3483989944762E-02
 0.2722500332296E-02  0.3845700959998E-02
 0.3187744983225E-02  0.4202654058174E-02
 0.3693033627090E-02  0.4554313800912E-02
 0.4238052158955E-02  0.4900172399534E-02
 0.4822393270719E-02  0.5239741873075E-02
 0.5445572655336E-02  0.5572545899940E-02
 0.6107038623586E-02  0.5898113069102E-02
 0.6806182449558E-02  0.6215973919385E-02
 0.7542303067410E-02  0.6525642583060E-02
 0.8314663068944E-02  0.6826641455293E-02
 0.9122417845910E-02  0.7118477691349E-02
 0.9964636253423E-02  0.7400665413894E-02
 0.1084028124523E-01  0.7672744350801E-02
 0.1174819790516E-01  0.7934349160060E-02
 0.1268720400803E-01  0.8185593606063E-02
 0.1365619931276E-01  0.8427956798883E-02
 0.1465396496765E-01  0.8663249833057E-02
 0.1567892089822E-01  0.8892909294891E-02
 0.1672903988480E-01  0.9117890194546E-02
 0.1780189499541E-01  0.9338857469559E-02
 0.1889475216417E-01  0.9556507567020E-02
 0.2000468300442E-01  0.9771877590475E-02
 0.2112866474391E-01  0.9986608193553E-02
 0.2226367420754E-01  0.1020311173630E-01
 0.2340688260666E-01  0.1042346406061E-01
 0.2455600292236E-01  0.1064946247239E-01
 0.2570959491697E-01  0.1088465355643E-01
 0.2686804933335E-01  0.1113487716165E-01
 0.2803372811857E-01  0.1140936031973E-01
 0.2922116253212E-01  0.1172371078122E-01
 0.3043347481924E-01  0.1212629610330E-01
 0.3755798968001E-01 -0.3992233960390E-01
 0.3478111290165E-01 -0.3725880525781E-01
 0.3241337366304E-01 -0.3527075652768E-01
 0.3041717966837E-01 -0.3358115590712E-01
 0.2862851718613E-01 -0.3208227902310E-01
 0.2699361380269E-01 -0.3071656744620E-01
 0.2547497989076E-01 -0.2944989684941E-01
 0.2405068779305E-01 -0.2826151922705E-01
 0.2270576435284E-01 -0.2713909451481E-01
 0.2142933219157E-01 -0.2607352801114E-01
 0.2021309708950E-01 -0.2505628691109E-01
 0.1905100942540E-01 -0.2408037782634E-01
 0.1793863312516E-01 -0.2314051694456E-01
 0.1687252299479E-01 -0.2223269179046E-01
 0.1584974384549E-01 -0.2135357087737E-01
 0.1486752551908E-01 -0.2049978300895E-01
 0.1392312294457E-01 -0.1966722556029E-01
 0.1301401922910E-01 -0.1885073529833E-01
 0.1213848439841E-01 -0.1804484555189E-01
 0.1129587740373E-01 -0.1724587938584E-01
 0.1048601760103E-01 -0.1645164948454E-01
 0.9708796783734E-02 -0.1566063056544E-01
 0.8964142927027E-02 -0.1487166752236E-01
 0.8252004925773E-02 -0.1408387056887E-01
 0.7572298463743E-02 -0.1329651635233E-01
 0.6924941993719E-02 -0.1250907162890E-01
 0.6309770903376E-02 -0.1172109430630E-01
 0.5726540183426E-02 -0.1093224351844E-01
 0.5174881876501E-02 -0.1014224743079E-01
 0.4654260455391E-02 -0.9350877178060E-02
 0.4163916586048E-02 -0.8557918699204E-02
 0.3702790933993E-02 -0.7763135867136E-02
 0.3269413002383E-02 -0.6966213839894E-02
 0.2861743534904E-02 -0.6166672985186E-02
 0.2476908183761E-02 -0.5363727048070E-02
 0.2110833504639E-02 -0.4556007395533E-02
 0.1757267183137E-02 -0.3741086985158E-02
 0.1407082936585E-02 -0.2914249712696E-02
 0.1041507442741E-02 -0.2064820160705E-02
 0.6314052662993E-03 -0.1177924132275E-02
 0.2481625253761E+00 -0.5384691259053E-01
 0.2521471125862E+00 -0.6258698098125E-01
 0.2562347202067E+00 -0.7155184548791E-01
 0.2604415024927E+00 -0.8073888216261E-01
 0.2647811244582E+00 -0.9014388311913E-01
 0.2692665599611E+00 -0.9976000184000E-01
 0.2739106073341E+00 -0.1095772585359E+00
 0.2787257986848E+00 -0.1195821717325E+00
 0.2837240428937E+00 -0.1297575428854E+00
 0.2889162495233E+00 -0.1400826114035E+00
 0.2943119165430E+00 -0.1505332621019E+00
 0.2999188059341E+00 -0.1610824471413E+00
 0.3057426994343E+00 -0.1717004640224E+00
 0.3117871741194E+00 -0.1823553561142E+00
 0.3180534000157E+00 -0.1930135225788E+00
 0.3245400219297E+00 -0.2036404039944E+00
 0.3312431247380E+00 -0.2142011308077E+00
 0.3381562807195E+00 -0.2246611193358E+00
 0.3452706626191E+00 -0.2349866205928E+00
 0.3525752114125E+00 -0.2451452239426E+00
 0.3600568431851E+00 -0.2551063000607E+00
 0.3677006674902E+00 -0.2648413318193E+00
 0.3754902259764E+00 -0.2743242274989E+00
 0.3834077366303E+00 -0.2835316118389E+00
 0.3914343407798E+00 -0.2924430555467E+00
 0.3995503437902E+00 -0.3010412453519E+00
 0.4077354414581E+00 -0.3093120976160E+00
 0.4159689210886E+00 -0.3172448132102E+00
 0.4242298409288E+00 -0.3248318825082E+00
 0.4324971510487E+00 -0.3320689998167E+00
 0.4407497457938E+00 -0.3389548591455E+00
 0.4489664790849E+00 -0.3454910208569E+00
 0.4571262476528E+00 -0.3516820206740E+00
 0.4652081192443E+00 -0.3575353523741E+00
 0.4731915620199E+00 -0.3630614853969E+00
 0.4810566158831E+00 -0.3682737929249E+00
 0.4887842484764E+00 -0.3731886394414E+00
 0.4963566079870E+00 -0.3778253725358E+00
 0.5037575150222E+00 -0.3822060582474E+00
 0.2243399440609E+00 -0.4206656638829E-01
 0.2049703893574E+00 -0.3887302908754E-01
 0.1861785252636E+00 -0.3570978206692E-01
 0.1680082369924E+00 -0.3259110343947E-01
 0.1505074155495E+00 -0.2954381379876E-01
 0.1337267151950E+00 -0.2659310760775E-01
 0.1177305995353E+00 -0.2375880153195E-01
 0.1025943921447E+00 -0.2105294438768E-01
 0.8840299133079E-01 -0.1847858980916E-01
 0.7525157738469E-01 -0.1603129393667E-01
 0.6324754173986E-01 -0.1370451427435E-01
 0.5251293760151E-01 -0.1149590184020E-01
 0.4318690609144E-01 -0.9409528399647E-02
 0.3542663574057E-01 -0.7452832647113E-02
 0.2940787815587E-01 -0.5632592637553E-02
 0.2532286430829E-01 -0.3951384385960E-02
 0.2337606085688E-01 -0.2400745540951E-02
 0.2379350228192E-01 -0.9579793344879E-03
 0.2683729369144E-01  0.4112407437422E-03
 0.4876334221414E+00 -0.3634829330635E+00
 0.4641224808721E+00 -0.3407056582721E+00
 0.4404139777918E+00 -0.3180360637034E+00
 0.4164867474075E+00 -0.2954981063868E+00
 0.3923331234789E+00 -0.2731195327820E+00
 0.3679533171536E+00 -0.2509325574706E+00
 0.3433525412135E+00 -0.2289804928848E+00
 0.3185493705179E+00 -0.2073244150703E+00
 0.2935826531676E+00 -0.1860488554304E+00
 0.2685157192536E+00 -0.1652649462486E+00
 0.2434326694938E+00 -0.1451070148746E+00
 0.2184273533646E+00 -0.1257247673229E+00
 0.1935961725531E+00 -0.1072782864011E+00
 0.1690443417170E+00 -0.8993928142060E-01
 0.1449034443391E+00 -0.7389325092897E-01
 0.1213410112863E+00 -0.5933655993876E-01
 0.9855668184001E-01 -0.4647306889031E-01
 0.7680489434253E-01 -0.3550973825061E-01
 0.5642445838417E-01 -0.2663598376717E-01
 0.2563362135885E+00 -0.3596805974754E-01
 0.2690867464650E+00 -0.2589159361691E-01
 0.2824818115865E+00 -0.1523725661977E-01
 0.2964524577882E+00 -0.4118220499945E-02
 0.3109161192223E+00  0.7364008019144E-02
 0.3257812050450E+00  0.1911664671637E-01
 0.3409499043035E+00  0.3105809342166E-01
 0.3563212655195E+00  0.4312065873163E-01
 0.3717952695967E+00  0.5525315281490E-01
 0.3872776108150E+00  0.6742270171728E-01
 0.4026847254806E+00  0.7961539135188E-01
 0.4179484566776E+00  0.9183538819742E-01
 0.4330196240517E+00  0.1041022981954E+00
 0.4478697214928E+00  0.1164467438617E+00
 0.4624900975841E+00  0.1289044948298E+00
 0.4768883752345E+00  0.1415099156575E+00
 0.4910824726694E+00  0.1542897779306E+00
 0.5050932288125E+00  0.1672584092845E+00
 0.5189364569913E+00  0.1804141087824E+00
 0.5415933922615E+00 -0.4121588676289E+00
 0.5721639479846E+00 -0.4377219327534E+00
 0.6025284946292E+00 -0.4628324197054E+00
 0.6325262562518E+00 -0.4872860273071E+00
 0.6619946490549E+00 -0.5108864219770E+00
 0.6907694098407E+00 -0.5334461243929E+00
 0.7186841655633E+00 -0.5547883628565E+00
 0.7455700013506E+00 -0.5747491425270E+00
 0.7712549959789E+00 -0.5931794051219E+00
 0.7955636627588E+00 -0.6099473152938E+00
 0.8183162868496E+00 -0.6249408711350E+00
 0.8393282511956E+00 -0.6380711889307E+00
 0.8584095951720E+00 -0.6492769948006E+00
 0.8753652808473E+00 -0.6585310914586E+00
 0.8899969942254E+00 -0.6658498901459E+00
 0.9021078798858E+00 -0.6713075961968E+00
 0.9115127597999E+00 -0.6750575840700E+00
 0.9180596174668E+00 -0.6773659075038E+00
 0.9216791577075E+00 -0.6786678631722E+00
 0.1874317022218E-03  0.4086514654858E-03
 0.3597909563285E-03  0.8049407974475E-03
 0.5319818965360E-03  0.1177250022780E-02
 0.7309066005812E-03  0.1544682619085E-02
 0.9622521219441E-03  0.1908439791403E-02
 0.1230111582114E-02  0.2269372143598E-02
 0.1536495853482E-02  0.2627369267734E-02
 0.1882549702539E-02  0.2982081376259E-02
 0.2268838825424E-02  0.3333045485864E-02
 0.2695572908758E-02  0.3679768195572E-02
 0.3162720697166E-02  0.4021755665567E-02
 0.3670083513791E-02  0.4358525392264E-02
 0.4217341986346E-02  0.4689609182265E-02
 0.4804083956717E-02  0.5014550269328E-02
 0.5429820641071E-02  0.5332898647256E-02
 0.6093996139113E-02  0.5644206817597E-02
 0.6795997528013E-02  0.5948028841735E-02
 0.7535119222393E-02  0.6243903600470E-02
 0.8310618623281E-02  0.6531380295709E-02
 0.9121644581827E-02  0.6809996218662E-02
 0.9967257222126E-02  0.7079299035599E-02
 0.1084640667176E-01  0.7338865722785E-02
 0.1175792321735E-01  0.7588337804076E-02
 0.1270061782531E-01  0.7827653820578E-02
 0.1367339955564E-01  0.8058070115589E-02
 0.1467505891261E-01  0.8281418651456E-02
 0.1570400555606E-01  0.8499332430156E-02
 0.1675817883613E-01  0.8713008520016E-02
 0.1783510064218E-01  0.8923314482229E-02
 0.1893197602897E-01  0.9131072068613E-02
 0.2004581281598E-01  0.9337359830334E-02
 0.2117352623235E-01  0.9543774159392E-02
 0.2231202515103E-01  0.9752659625139E-02
 0.2345840746849E-01  0.9966007245760E-02