<VTKFile type="UnstructuredGrid" version="1,0" byte_order="LittleEndian">
<UnstructuredGrid>
<Piece NumberOfPoints="5802" NumberOfCells="5680">
<Points>
<DataArray type="Float64" NumberOfComponents="3" format="ascii">
-0.1100000000000E+01 -0.4731587125634E+01  0.0000000000000E+00
 0.0000000000000E+00 -0.4731587125634E+01  0.0000000000000E+00
 0.1100000000000E+01 -0.4731587125634E+01  0.0000000000000E+00
-0.1191315091097E+01 -0.1825930012610E+01  0.0000000000000E+00
-0.5956575398395E+00 -0.1755172846926E+01  0.0000000000000E+00
 0.5956575512579E+00 -0.1755172847830E+01  0.0000000000000E+00
 0.1191315091097E+01 -0.1825930012610E+01  0.0000000000000E+00
-0.1487255332335E+01  0.3711246317436E+00  0.0000000000000E+00
 0.1487255329206E+01  0.3711246337271E+00  0.0000000000000E+00
-0.6187500000000E+00 -0.4973806884503E+00  0.0000000000000E+00
 0.6187500000000E+00 -0.4973806884503E+00  0.0000000000000E+00
-0.1072500000000E+01 -0.4731587125634E+01  0.0000000000000E+00
-0.1045000000000E+01 -0.4731587125634E+01  0.0000000000000E+00
-0.1017500000000E+01 -0.4731587125634E+01  0.0000000000000E+00
-0.9900000000000E+00 -0.4731587125634E+01  0.0000000000000E+00
-0.9625000000000E+00 -0.4731587125634E+01  0.0000000000000E+00
-0.9350000000000E+00 -0.4731587125634E+01  0.0000000000000E+00
-0.9075000000000E+00 -0.4731587125634E+01  0.0000000000000E+00
-0.8800000000000E+00 -0.4731587125634E+01  0.0000000000000E+00
-0.8525000000000E+00 -0.4731587125634E+01  0.0000000000000E+00
-0.8250000000000E+00 -0.4731587125634E+01  0.0000000000000E+00
-0.7975000000000E+00 -0.4731587125634E+01  0.0000000000000E+00
-0.7700000000000E+00 -0.4731587125634E+01  0.0000000000000E+00
-0.7425000000000E+00 -0.4731587125634E+01  0.0000000000000E+00
-0.7150000000000E+00 -0.4731587125634E+01  0.0000000000000E+00
-0.6875000000000E+00 -0.4731587125634E+01  0.0000000000000E+00
-0.6600000000000E+00 -0.4731587125634E+01  0.0000000000000E+00
-0.6325000000000E+00 -0.4731587125634E+01  0.0000000000000E+00
-0.6050000000000E+00 -0.4731587125634E+01  0.0000000000000E+00
-0.5775000000000E+00 -0.4731587125634E+01  0.0000000000000E+00
-0.5500000000000E+00 -0.4731587125634E+01  0.0000000000000E+00
-0.5225000000000E+00 -0.4731587125634E+01  0.0000000000000E+00
-0.4950000000000E+00 -0.4731587125634E+01  0.0000000000000E+00
-0.4675000000000E+00 -0.4731587125634E+01  0.0000000000000E+00
-0.4400000000000E+00 -0.4731587125634E+01  0.0000000000000E+00
-0.4125000000000E+00 -0.4731587125634E+01  0.0000000000000E+00
-0.3850000000000E+00 -0.4731587125634E+01  0.0000000000000E+00
-0.3575000000000E+00 -0.4731587125634E+01  0.0000000000000E+00
-0.3300000000000E+00 -0.4731587125634E+01  0.0000000000000E+00
-0.3025000000000E+00 -0.4731587125634E+01  0.0000000000000E+00
-0.2750000000000E+00 -0.4731587125634E+01  0.0000000000000E+00
-0.2475000000000E+00 -0.4731587125634E+01  0.0000000000000E+00
-0.2200000000000E+00 -0.4731587125634E+01  0.0000000000000E+00
-0.1925000000000E+00 -0.4731587125634E+01  0.0000000000000E+00
-0.1650000000000E+00 -0.4731587125634E+01  0.0000000000000E+00
-0.1375000000000E+00 -0.4731587125634E+01  0.0000000000000E+00
-0.1100000000000E+00 -0.4731587125634E+01  0.0000000000000E+00
-0.8250000000000E-01 -0.4731587125634E+01  0.0000000000000E+00
-0.5500000000000E-01 -0.4731587125634E+01  0.0000000000000E+00
-0.2750000000000E-01 -0.4731587125634E+01  0.0000000000000E+00
 0.2750000000000E-01 -0.4731587125634E+01  0.0000000000000E+00
 0.5500000000000E-01 -0.4731587125634E+01  0.0000000000000E+00
 0.8250000000000E-01 -0.4731587125634E+01  0.0000000000000E+00
 0.1100000000000E+00 -0.4731587125634E+01  0.0000000000000E+00
 0.1375000000000E+00 -0.4731587125634E+01  0.0000000000000E+00
 0.1650000000000E+00 -0.4731587125634E+01  0.0000000000000E+00
 0.1925000000000E+00 -0.4731587125634E+01  0.0000000000000E+00
 0.2200000000000E+00 -0.4731587125634E+01  0.0000000000000E+00
 0.2475000000000E+00 -0.4731587125634E+01  0.0000000000000E+00
 0.2750000000000E+00 -0.4731587125634E+01  0.0000000000000E+00
 0.3025000000000E+00 -0.4731587125634E+01  0.0000000000000E+00
 0.3300000000000E+00 -0.4731587125634E+01  0.0000000000000E+00
 0.3575000000000E+00 -0.4731587125634E+01  0.0000000000000E+00
 0.3850000000000E+00 -0.4731587125634E+01  0.0000000000000E+00
 0.4125000000000E+00 -0.4731587125634E+01  0.0000000000000E+00
 0.4400000000000E+00 -0.4731587125634E+01  0.0000000000000E+00
 0.4675000000000E+00 -0.4731587125634E+01  0.0000000000000E+00
 0.4950000000000E+00 -0.4731587125634E+01  0.0000000000000E+00
 0.5225000000000E+00 -0.4731587125634E+01  0.0000000000000E+00
 0.5500000000000E+00 -0.4731587125634E+01  0.0000000000000E+00
 0.5775000000000E+00 -0.4731587125634E+01  0.0000000000000E+00
 0.6050000000000E+00 -0.4731587125634E+01  0.0000000000000E+00
 0.6325000000000E+00 -0.4731587125634E+01  0.0000000000000E+00
 0.6600000000000E+00 -0.4731587125634E+01  0.0000000000000E+00
 0.6875000000000E+00 -0.4731587125634E+01  0.0000000000000E+00
 0.7150000000000E+00 -0.4731587125634E+01  0.0000000000000E+00
 0.7425000000000E+00 -0.4731587125634E+01  0.0000000000000E+00
 0.7700000000000E+00 -0.4731587125634E+01  0.0000000000000E+00
 0.7975000000000E+00 -0.4731587125634E+01  0.0000000000000E+00
 0.8250000000000E+00 -0.4731587125634E+01  0.0000000000000E+00
 0.8525000000000E+00 -0.4731587125634E+01  0.0000000000000E+00
 0.8800000000000E+00 -0.4731587125634E+01  0.0000000000000E+00
 0.9075000000000E+00 -0.4731587125634E+01  0.0000000000000E+00
 0.9350000000000E+00 -0.4731587125634E+01  0.0000000000000E+00
 0.9625000000000E+00 -0.4731587125634E+01  0.0000000000000E+00
 0.9900000000000E+00 -0.4731587125634E+01  0.0000000000000E+00
 0.1017500000000E+01 -0.4731587125634E+01  0.0000000000000E+00
 0.1045000000000E+01 -0.4731587125634E+01  0.0000000000000E+00
 0.1072500000000E+01 -0.4731587125634E+01  0.0000000000000E+00
-0.1161675590434E+01 -0.1821293974842E+01  0.0000000000000E+00
-0.1132018469080E+01 -0.1816772081031E+01  0.0000000000000E+00
-0.1102344135527E+01 -0.1812364599475E+01  0.0000000000000E+00
-0.1072653001422E+01 -0.1808071792594E+01  0.0000000000000E+00
-0.1042945459471E+01 -0.1803893913795E+01  0.0000000000000E+00
-0.1013221952450E+01 -0.1799831217138E+01  0.0000000000000E+00
-0.9834829017084E+00 -0.1795883946982E+01  0.0000000000000E+00
-0.9537287316532E+00 -0.1792052341512E+01  0.0000000000000E+00
-0.9239598612408E+00 -0.1788336631619E+01  0.0000000000000E+00
-0.8941767210493E+00 -0.1784737043031E+01  0.0000000000000E+00
-0.8643797539566E+00 -0.1781253796152E+01  0.0000000000000E+00
-0.8345693957871E+00 -0.1777887103664E+01  0.0000000000000E+00
-0.8047460850418E+00 -0.1774637171701E+01  0.0000000000000E+00
-0.7749102599775E+00 -0.1771504199483E+01  0.0000000000000E+00
-0.7450623578572E+00 -0.1768488379244E+01  0.0000000000000E+00
-0.7152028352234E+00 -0.1765589898169E+01  0.0000000000000E+00
-0.6853321404180E+00 -0.1762808935500E+01  0.0000000000000E+00
-0.6554507240472E+00 -0.1760145663610E+01  0.0000000000000E+00
-0.6255590388957E+00 -0.1757600247935E+01  0.0000000000000E+00
-0.5659320403842E+00 -0.1752877555980E+01  0.0000000000000E+00
-0.5361977827764E+00 -0.1750699115345E+01  0.0000000000000E+00
-0.5064551822954E+00 -0.1748637656849E+01  0.0000000000000E+00
-0.4767046834532E+00 -0.1746693307634E+01  0.0000000000000E+00
-0.4469467825907E+00 -0.1744866190914E+01  0.0000000000000E+00
-0.4171818756954E+00 -0.1743156416506E+01  0.0000000000000E+00
-0.3874104734057E+00 -0.1741564093885E+01  0.0000000000000E+00
-0.3576330176963E+00 -0.1740089321191E+01  0.0000000000000E+00
-0.3278499563594E+00 -0.1738732189839E+01  0.0000000000000E+00
-0.2980617833702E+00 -0.1737492785992E+01  0.0000000000000E+00
-0.2682689204519E+00 -0.1736371185422E+01  0.0000000000000E+00
-0.2384718656336E+00 -0.1735367459648E+01  0.0000000000000E+00
-0.2086710716336E+00 -0.1734481671049E+01  0.0000000000000E+00
-0.1788669979735E+00 -0.1733713874997E+01  0.0000000000000E+00
-0.1490601279746E+00 -0.1733064120054E+01  0.0000000000000E+00
-0.1192509059245E+00 -0.1732532446511E+01  0.0000000000000E+00
-0.8943981808141E-01 -0.1732118888112E+01  0.0000000000000E+00
-0.5962732433722E-01 -0.1731823470688E+01  0.0000000000000E+00
-0.2981389296327E-01 -0.1731646212812E+01  0.0000000000000E+00
 0.5727055524263E-08 -0.1731587125634E+01  0.0000000000000E+00
 0.2981390441730E-01 -0.1731646212857E+01  0.0000000000000E+00
 0.5962733579097E-01 -0.1731823470779E+01  0.0000000000000E+00
 0.8943982953471E-01 -0.1732118888248E+01  0.0000000000000E+00
 0.1192509173772E+00 -0.1732532446692E+01  0.0000000000000E+00
 0.1490601394265E+00 -0.1733064120281E+01  0.0000000000000E+00
 0.1788670094244E+00 -0.1733713875269E+01  0.0000000000000E+00
 0.2086710830833E+00 -0.1734481671367E+01  0.0000000000000E+00
 0.2384718770819E+00 -0.1735367460011E+01  0.0000000000000E+00
 0.2682689318987E+00 -0.1736371185830E+01  0.0000000000000E+00
 0.2980617948153E+00 -0.1737492786445E+01  0.0000000000000E+00
 0.3278499678026E+00 -0.1738732190338E+01  0.0000000000000E+00
 0.3576330291375E+00 -0.1740089321735E+01  0.0000000000000E+00
 0.3874104848446E+00 -0.1741564094474E+01  0.0000000000000E+00
 0.4171818871319E+00 -0.1743156417141E+01  0.0000000000000E+00
 0.4469467940246E+00 -0.1744866191594E+01  0.0000000000000E+00
 0.4767046948843E+00 -0.1746693308359E+01  0.0000000000000E+00
 0.5064551937236E+00 -0.1748637657619E+01  0.0000000000000E+00
 0.5361977942015E+00 -0.1750699116160E+01  0.0000000000000E+00
 0.5659320518060E+00 -0.1752877556840E+01  0.0000000000000E+00
 0.6255590497397E+00 -0.1757600248837E+01  0.0000000000000E+00
 0.6554507343169E+00 -0.1760145664505E+01  0.0000000000000E+00
 0.6853321501138E+00 -0.1762808936384E+01  0.0000000000000E+00
 0.7152028443456E+00 -0.1765589899036E+01  0.0000000000000E+00
 0.7450623664059E+00 -0.1768488380091E+01  0.0000000000000E+00
 0.7749102679531E+00 -0.1771504200305E+01  0.0000000000000E+00
 0.8047460924447E+00 -0.1774637172493E+01  0.0000000000000E+00
 0.8345694026177E+00 -0.1777887104422E+01  0.0000000000000E+00
[...]
<PointData Vectors="'U'">
<DataArray type="Float64" Name="U" NumberOfComponents="2" ComponentName0="U1" ComponentName1="U2" format="ascii">
-0.6341878333232E-37 -0.1597463583857E-36
 0.1463041914419E-38 -0.4382037657166E-37
-0.2484499948565E-37  0.6291965341813E-37
-0.4464359730409E-01 -0.4411206208059E-01
-0.3784554051681E-01 -0.1996716948880E-01
-0.3280973087624E-01  0.1742726175801E-02
-0.3210748645241E-01  0.1269611414712E-01
-0.9225701740116E+00 -0.6796800622122E+00
-0.5326183037465E+00  0.1937392416816E+00
-0.5109734277833E+00 -0.3863552515348E+00
-0.2442428397879E+00 -0.4534131350472E-01
-0.2611853875669E-37 -0.2087053254652E-36
-0.2749191186050E-37 -0.1859224283339E-36
-0.2544427044345E-37 -0.1734875730545E-36
-0.2309895151273E-37 -0.1648991355281E-36
-0.2094187705761E-37 -0.1581921623406E-36
-0.1902548313808E-37 -0.1525641579734E-36
-0.1732464188972E-37 -0.1476190987257E-36
-0.1580515124253E-37 -0.1431362373340E-36
-0.1443711590006E-37 -0.1389818156548E-36
-0.1319652983604E-37 -0.1350696985725E-36
-0.1206443119981E-37 -0.1313417670080E-36
-0.1102578244927E-37 -0.1277573180561E-36
-0.1006853071137E-37 -0.1242869615315E-36
-0.9182895070002E-38 -0.1209089247453E-36
-0.8360840199921E-38 -0.1176067214107E-36
-0.7595688237359E-38 -0.1143676294475E-36
-0.6881830488962E-38 -0.1111816674145E-36
-0.6214510871740E-38 -0.1080408885789E-36
-0.5589662033937E-38 -0.1049388842085E-36
-0.5003932276516E-38 -0.1018705109671E-36
-0.4453979007297E-38 -0.9883116850549E-37
-0.3937234550523E-38 -0.9581745166225E-37
-0.3451389114364E-38 -0.9282631183100E-37
-0.2994370882130E-38 -0.8985516280217E-37
-0.2564336274057E-38 -0.8690179022391E-37
-0.2159639020773E-38 -0.8396427998006E-37
-0.1778803206011E-38 -0.8104096251137E-37
-0.1420501137469E-38 -0.7813036905638E-37
-0.1083534957954E-38 -0.7523119613097E-37
-0.7668212199935E-39 -0.7234227660979E-37
-0.4693782933352E-39 -0.6946255623849E-37
-0.1903156529430E-39 -0.6659107385576E-37
 0.7117490737442E-40 -0.6372694525078E-37
 0.3158265698416E-39 -0.6086934943333E-37
 0.5443036085114E-39 -0.5801751706683E-37
 0.7572062826864E-39 -0.5517072076523E-37
 0.9550749013977E-39 -0.5232826661162E-37
 0.1138392998001E-38 -0.4948948705423E-37
 0.1307589775215E-38 -0.4665373463421E-37
 0.1605074761952E-38 -0.4098879000835E-37
 0.1733962955223E-38 -0.3815835778550E-37
 0.1849930521908E-38 -0.3532846466160E-37
 0.1953150457387E-38 -0.3249849388889E-37
 0.2043743755975E-38 -0.2966782407061E-37
 0.2121777982709E-38 -0.2683582613976E-37
 0.2187265199344E-38 -0.2400186060648E-37
 0.2240159370288E-38 -0.2116527463791E-37
 0.2280353110550E-38 -0.1832539928887E-37
 0.2307673647446E-38 -0.1548154650142E-37
 0.2321878103601E-38 -0.1263300579874E-37
 0.2322647673984E-38 -0.9779040864252E-38
 0.2309580816884E-38 -0.6918885222768E-38
 0.2282185139408E-38 -0.4051737562243E-38
 0.2239867612847E-38 -0.1176755864173E-38
 0.2181923130891E-38  0.1706949868106E-38
 0.2107520589865E-38  0.4600326365050E-38
 0.2015686438859E-38  0.7504389098638E-38
 0.1905285920593E-38  0.1042023861680E-37
 0.1775089318093E-38  0.1334911794023E-37
 0.1623460636925E-38  0.1629212312283E-37
 0.1448498876318E-38  0.1925096715608E-37
 0.1248201824045E-38  0.2222727499718E-37
 0.1020110431867E-38  0.2522298632348E-37
 0.7613269400232E-39  0.2824039251399E-37
 0.4684185974599E-39  0.3128225596758E-37
 0.1372900213897E-39  0.3435198625006E-37
-0.2369864940643E-39  0.3745390262482E-37
-0.6603993398220E-39  0.4059363503809E-37
-0.1140308472597E-38  0.4377875479163E-37
-0.1685871711696E-38  0.4701980193388E-37
-0.2308625820613E-38  0.5033203056460E-37
-0.3023246254750E-38  0.5373852954145E-37
-0.3848390854317E-38  0.5727617402785E-37
-0.4806973662188E-38  0.6100796576783E-37
-0.5922710220796E-38  0.6505166225825E-37
-0.7197676299262E-38  0.6965740682083E-37
-0.8487146323179E-38  0.7547030913960E-37
-0.8701619051519E-38  0.8473697781141E-37
-0.4365928462834E-01 -0.4032899217122E-01
-0.4296896664277E-01 -0.3786818860367E-01
-0.4240758764956E-01 -0.3599029562105E-01
-0.4193910775494E-01 -0.3442610589530E-01
-0.4153593494011E-01 -0.3305793008940E-01
-0.4117913068665E-01 -0.3182438119570E-01
-0.4085586773644E-01 -0.3068997680907E-01
-0.4055754927204E-01 -0.2963247838631E-01
-0.4027837158564E-01 -0.2863700060473E-01
-0.4001435164071E-01 -0.2769302255840E-01
-0.3976269588986E-01 -0.2679276761354E-01
-0.3952139820689E-01 -0.2593027306634E-01
-0.3928898468459E-01 -0.2510082909743E-01
-0.3906435059327E-01 -0.2430062396944E-01
-0.3884665574630E-01 -0.2352651068254E-01
-0.3863525833760E-01 -0.2277584847107E-01
-0.3842967561599E-01 -0.2204638929525E-01
-0.3822957318226E-01 -0.2133619622855E-01
-0.3803477297220E-01 -0.2064355864145E-01
-0.3766091132407E-01 -0.1930994851634E-01
-0.3747955078832E-01 -0.1866505119639E-01
-0.3730146729219E-01 -0.1803201865104E-01
-0.3712667608583E-01 -0.1741005893462E-01
-0.3695516232788E-01 -0.1679837751411E-01
-0.3678689427328E-01 -0.1619621676731E-01
-0.3662183279847E-01 -0.1560287155897E-01
-0.3645993635355E-01 -0.1501768591908E-01
-0.3630116476398E-01 -0.1444005179390E-01
-0.3614548117102E-01 -0.1386940602486E-01
-0.3599285212053E-01 -0.1330522418201E-01
-0.3584324846029E-01 -0.1274701974376E-01
-0.3569664449726E-01 -0.1219433843232E-01
-0.3555301788038E-01 -0.1164675619690E-01
-0.3541234920157E-01 -0.1110387681437E-01
-0.3527462119091E-01 -0.1056532831665E-01
-0.3513981859189E-01 -0.1003076228680E-01
-0.3500792735301E-01 -0.9499850652548E-02
-0.3487893432907E-01 -0.8972284535180E-02
-0.3475282682349E-01 -0.8447772516682E-02
-0.3462959217575E-01 -0.7926039077567E-02
-0.3450921742105E-01 -0.7406823305022E-02
-0.3439168898503E-01 -0.6889877714671E-02
-0.3427699238255E-01 -0.6374967037647E-02
-0.3416511194966E-01 -0.5861867084667E-02
-0.3405603076145E-01 -0.5350364408500E-02
-0.3394973019949E-01 -0.4840254283614E-02
-0.3384619010084E-01 -0.4331341340504E-02
-0.3374538841072E-01 -0.3823437826353E-02
-0.3364730115840E-01 -0.3316363338208E-02
-0.3355190256392E-01 -0.2809945270465E-02
-0.3345916461936E-01 -0.2304016459971E-02
-0.3336905759968E-01 -0.1798417635153E-02
-0.3328154983427E-01 -0.1292995637833E-02
-0.3319660824713E-01 -0.7876048283158E-03
-0.3311419969153E-01 -0.2821099604187E-03
-0.3303429297944E-01  0.2236140863630E-03
-0.3295686924170E-01  0.7296704242033E-03
-0.3288193308357E-01  0.1236136491618E-02
-0.3273878691473E-01  0.2253265621986E-02
-0.3267040146999E-01  0.2765244631127E-02
-0.3260436798564E-01  0.3278466971284E-02
-0.3254065579854E-01  0.3793010596518E-02
-0.3247925851337E-01  0.4308974068937E-02
-0.3242019351406E-01  0.4826469747072E-02
-0.3236350274409E-01  0.5345619005504E-02
-0.3230926181584E-01  0.5866554934143E-02
-0.3225759474392E-01  0.6389428847958E-02
-0.3220869621348E-01  0.6914423986847E-02
-0.3216286497717E-01  0.7441780473237E-02
-0.3212055432004E-01  0.7971840112025E-02
-0.3208244854167E-01  0.8505129252287E-02
-0.3204957820857E-01  0.9042514274828E-02
-0.3202348879278E-01  0.9585504440874E-02
-0.3200646947868E-01  0.1013686850249E-01
-0.3200179990565E-01  0.1070196514348E-01
-0.3201383559028E-01  0.1129187381860E-01
-0.3204696966931E-01  0.1193247595116E-01
-0.1904456096831E+00 -0.1420991343058E+00
-0.2642939383016E+00 -0.2266339333470E+00
-0.3233428013207E+00 -0.2968216654456E+00
-0.3752258483842E+00 -0.3614313055226E+00
-0.4239909557186E+00 -0.4222039386824E+00
-0.4718900451666E+00 -0.4782032851767E+00
-0.5196069678170E+00 -0.5256936527012E+00
-0.5664429295742E+00 -0.5648390880635E+00
-0.6118850630456E+00 -0.5975366006912E+00
-0.6557777583307E+00 -0.6249597128853E+00
-0.6979687078404E+00 -0.6476334038246E+00
-0.7381773840205E+00 -0.6657709947105E+00
-0.7760426951176E+00 -0.6796649671394E+00
-0.8111142006128E+00 -0.6894954621975E+00
-0.8428264583094E+00 -0.6953727933499E+00
-0.8706060958128E+00 -0.6976562951793E+00
-0.8940613548509E+00 -0.6972609848010E+00
-0.9115910160522E+00 -0.6926367160223E+00
-0.9212128009797E+00 -0.6848439072601E+00
-0.9203781793812E+00 -0.6806500342291E+00
-0.9160840865554E+00 -0.6863911039628E+00
-0.9110990893063E+00 -0.6947446032447E+00
-0.9063876686124E+00 -0.7030421770359E+00
-0.9015753857704E+00 -0.7095547793987E+00
-0.8957239763410E+00 -0.7134097864564E+00
-0.8879430515102E+00 -0.7141618992042E+00
-0.8774888297787E+00 -0.7116724946043E+00
-0.8638897828200E+00 -0.7060287774212E+00
-0.8470467940059E+00 -0.6973995686503E+00
-0.8274299552728E+00 -0.6859338109667E+00
-0.8057949291090E+00 -0.6714978871391E+00
-0.7828403772902E+00 -0.6538303340537E+00
-0.7591492381248E+00 -0.6327481048385E+00
-0.7352126645889E+00 -0.6081598794199E+00
-0.7114585065293E+00 -0.5800472990227E+00
-0.6882716109788E+00 -0.5484547677770E+00
-0.6660076823442E+00 -0.5134894557227E+00
-0.6450054287569E+00 -0.4753291168931E+00
-0.6256020415876E+00 -0.4342381317377E+00
-0.6081114651023E+00 -0.3905847866631E+00
-0.5926953202646E+00 -0.3448454077158E+00
-0.5794001334677E+00 -0.2976984243615E+00
-0.5681929639839E+00 -0.2501202518446E+00
-0.5590117485358E+00 -0.2035353542934E+00
-0.5519217430215E+00 -0.1601705621824E+00
-0.5471776276558E+00 -0.1226217582229E+00
-0.5445588370805E+00 -0.9064201328236E-01
-0.5436596729830E+00 -0.6213262280278E-01
-0.5444422589479E+00 -0.3598354946351E-01
-0.5465626074823E+00 -0.1144464659498E-01
-0.5493816230698E+00  0.1212506538238E-01
-0.5523175087333E+00  0.3520080584616E-01
-0.5548112598396E+00  0.5811948966877E-01
-0.5563423134297E+00  0.8107709280387E-01
-0.5563451094054E+00  0.1041391533554E+00
-0.5541253023466E+00  0.1272158759542E+00
-0.5495163377165E+00  0.1500653415194E+00
-0.5425231394875E+00  0.1724152441203E+00
-0.5079934040402E+00  0.2204350174002E+00
-0.4752690765795E+00  0.2373171204285E+00
-0.4383902401097E+00  0.2434239772839E+00
-0.4006850732562E+00  0.2428023416516E+00
-0.3632663045076E+00  0.2399476629015E+00
-0.3264369765482E+00  0.2344105150265E+00
-0.2905460850562E+00  0.2264046483002E+00
-0.2559035115597E+00  0.2162531462687E+00
-0.2227958514660E+00  0.2041398822444E+00
-0.1915043198360E+00  0.1901812083889E+00
-0.1622828580810E+00  0.1746003473864E+00
-0.1353828723024E+00  0.1575136178658E+00
-0.1111132563339E+00  0.1388815136024E+00
-0.8995454406642E-01  0.1185791337634E+00
-0.7243779349221E-01  0.9721864465209E-01
-0.5880228849386E-01  0.7645802260072E-01
-0.4930588600699E-01  0.5696045457988E-01
-0.4390175553766E-01  0.3921935906022E-01
-0.4116911802495E-01  0.2381335100674E-01
-0.6314052661959E-03 -0.1177924132066E-02
-0.1041507442554E-02 -0.2064820160338E-02
-0.1407082936328E-02 -0.2914249712174E-02
-0.1757267182806E-02 -0.3741086984488E-02
-0.2110833504229E-02 -0.4556007394716E-02
-0.2476908183267E-02 -0.5363727047107E-02
-0.2861743534317E-02 -0.6166672984080E-02
-0.3269413001696E-02 -0.6966213838646E-02
-0.3702790933198E-02 -0.7763135865749E-02
-0.4163916585135E-02 -0.8557918697678E-02
-0.4654260454352E-02 -0.9350877176398E-02
-0.5174881875327E-02 -0.1014224742899E-01
-0.5726540182108E-02 -0.1093224351651E-01
-0.6309770901905E-02 -0.1172109430424E-01
-0.6924941992086E-02 -0.1250907162671E-01
-0.7572298461939E-02 -0.1329651635002E-01
-0.8252004923789E-02 -0.1408387056643E-01
-0.8964142924855E-02 -0.1487166751980E-01
-0.9708796781364E-02 -0.1566063056277E-01
-0.1048601759845E-01 -0.1645164948175E-01
-0.1129587740094E-01 -0.1724587938294E-01
-0.1213848439539E-01 -0.1804484554889E-01
-0.1301401922586E-01 -0.1885073529524E-01
-0.1392312294108E-01 -0.1966722555711E-01
-0.1486752551536E-01 -0.2049978300568E-01
-0.1584974384151E-01 -0.2135357087403E-01
-0.1687252299056E-01 -0.2223269178705E-01
-0.1793863312067E-01 -0.2314051694110E-01
-0.1905100942065E-01 -0.2408037782283E-01
-0.2021309708449E-01 -0.2505628690753E-01
-0.2142933218628E-01 -0.2607352800755E-01
-0.2270576434728E-01 -0.2713909451119E-01
-0.2405068778722E-01 -0.2826151922344E-01
-0.2547497988468E-01 -0.2944989684586E-01
-0.2699361379639E-01 -0.3071656744279E-01
-0.2862851717965E-01 -0.3208227901988E-01
-0.3041717966178E-01 -0.3358115590420E-01
-0.3241337365651E-01 -0.3527075652512E-01
-0.3478111289513E-01 -0.3725880525645E-01
-0.3755798967681E-01 -0.3992233960307E-01
-0.3043347480947E-01  0.1212629609494E-01
-0.2922116252357E-01  0.1172371077353E-01
-0.2803372811073E-01  0.1140936031271E-01
-0.2686804932609E-01  0.1113487715512E-01
-0.2570959491020E-01  0.1088465355033E-01
-0.2455600291602E-01  0.1064946246666E-01
-0.2340688260071E-01  0.1042346405520E-01
-0.2226367420194E-01  0.1020311173118E-01
-0.2112866473864E-01  0.9986608188674E-02
-0.2000468299945E-01  0.9771877585825E-02
-0.1889475215950E-01  0.9556507562587E-02
-0.1780189499101E-01  0.9338857465330E-02
-0.1672903988066E-01  0.9117890190508E-02
-0.1567892089434E-01  0.8892909291033E-02
-0.1465396496401E-01  0.8663249829368E-02
-0.1365619930935E-01  0.8427956795352E-02
-0.1268720400485E-01  0.8185593602682E-02
-0.1174819790220E-01  0.7934349156822E-02
-0.1084028124247E-01  0.7672744347704E-02
-0.9964636250862E-02  0.7400665410935E-02
-0.9122417843542E-02  0.7118477688527E-02
-0.8314663066761E-02  0.6826641452606E-02
-0.7542303065404E-02  0.6525642580507E-02
-0.6806182447722E-02  0.6215973916965E-02
-0.6107038621911E-02  0.5898113066816E-02
-0.5445572653816E-02  0.5572545897787E-02
-0.4822393269345E-02  0.5239741871056E-02
-0.4238052157720E-02  0.4900172397649E-02
-0.3693033625987E-02  0.4554313799162E-02
-0.3187744982245E-02  0.4202654056558E-02
-0.2722500331432E-02  0.3845700958519E-02
-0.2297492972872E-02  0.3483989943419E-02
-0.1912748580787E-02  0.3118088557612E-02
-0.1568055048317E-02  0.2748596567131E-02
-0.1262839838471E-02  0.2376135837027E-02
-0.9959927400305E-03  0.2001308252066E-02
-0.7654141898510E-03  0.1624613196799E-02
-0.5676091683155E-03  0.1246158765167E-02
-0.3946431406901E-03  0.8645524016624E-03
-0.2333286244206E-03  0.4789760481033E-03
-0.5037575148864E+00 -0.3822060581934E+00
-0.4963566078518E+00 -0.3778253724874E+00
-0.4887842483418E+00 -0.3731886393985E+00
-0.4810566157492E+00 -0.3682737928875E+00
-0.4731915618865E+00 -0.3630614853647E+00
-0.4652081191115E+00 -0.3575353523469E+00
-0.4571262475204E+00 -0.3516820206516E+00
-0.4489664789529E+00 -0.3454910208391E+00
-0.4407497456622E+00 -0.3389548591320E+00
-0.4324971509174E+00 -0.3320689998072E+00
-0.4242298407978E+00 -0.3248318825026E+00
-0.4159689209578E+00 -0.3172448132083E+00
-0.4077354413275E+00 -0.3093120976176E+00
-0.3995503436598E+00 -0.3010412453568E+00
-0.3914343406495E+00 -0.2924430555546E+00
-0.3834077365002E+00 -0.2835316118498E+00
-0.3754902258463E+00 -0.2743242275126E+00
-0.3677006673601E+00 -0.2648413318355E+00
-0.3600568430550E+00 -0.2551063000794E+00
-0.3525752112824E+00 -0.2451452239637E+00
-0.3452706624889E+00 -0.2349866206162E+00
-0.3381562805893E+00 -0.2246611193612E+00
-0.3312431246078E+00 -0.2142011308351E+00
-0.3245400217993E+00 -0.2036404040237E+00
-0.3180533998853E+00 -0.1930135226099E+00
-0.3117871739889E+00 -0.1823553561469E+00
-0.3057426993038E+00 -0.1717004640566E+00
-0.2999188058037E+00 -0.1610824471769E+00
-0.2943119164126E+00 -0.1505332621387E+00
-0.2889162493930E+00 -0.1400826114415E+00
-0.2837240427635E+00 -0.1297575429243E+00
-0.2787257985549E+00 -0.1195821717723E+00
-0.2739106072046E+00 -0.1095772585763E+00
-0.2692665598321E+00 -0.9976000188092E-01
-0.2647811243298E+00 -0.9014388316042E-01
-0.2604415023652E+00 -0.8073888220413E-01
-0.2562347200800E+00 -0.7155184552953E-01
-0.2521471124606E+00 -0.6258698102287E-01
-0.2481625252517E+00 -0.5384691263208E-01
-0.4876334220256E+00 -0.3634829330197E+00
-0.4641224807753E+00 -0.3407056582434E+00
-0.4404139777113E+00 -0.3180360636884E+00
-0.4164867473394E+00 -0.2954981063827E+00
-0.3923331234167E+00 -0.2731195327839E+00
-0.3679533170873E+00 -0.2509325574709E+00
-0.3433525411280E+00 -0.2289804928724E+00
-0.3185493703924E+00 -0.2073244150307E+00
-0.2935826529758E+00 -0.1860488553459E+00
-0.2685157189668E+00 -0.1652649461016E+00
-0.2434326690866E+00 -0.1451070146514E+00
-0.2184273528224E+00 -0.1257247670184E+00
-0.1935961718774E+00 -0.1072782860212E+00
-0.1690443409282E+00 -0.8993928098220E-01
-0.1449034434772E+00 -0.7389325045729E-01
-0.1213410104096E+00 -0.5933655946368E-01
-0.9855668102292E-01 -0.4647306844191E-01
-0.7680489367385E-01 -0.3550973785438E-01
-0.5642445796157E-01 -0.2663598343891E-01
-0.2243399439354E+00 -0.4206656642756E-01
-0.2049703892289E+00 -0.3887302912404E-01
-0.1861785251317E+00 -0.3570978209926E-01
-0.1680082368567E+00 -0.3259110346504E-01
-0.1505074154096E+00 -0.2954381381363E-01
-0.1337267150500E+00 -0.2659310760645E-01
-0.1177305993836E+00 -0.2375880150742E-01
-0.1025943919842E+00 -0.2105294433151E-01
-0.8840299115913E-01 -0.1847858971263E-01
-0.7525157719985E-01 -0.1603129379280E-01
-0.6324754154168E-01 -0.1370451408069E-01
-0.5251293739267E-01 -0.1149590160067E-01
-0.4318690587765E-01 -0.9409528124505E-02
-0.3542663552983E-01 -0.7452832351055E-02
-0.2940787795727E-01 -0.5632592337039E-02
-0.2532286413096E-01 -0.3951384096616E-02
-0.2337606070889E-01 -0.2400745275125E-02
-0.2379350216905E-01 -0.9579790987906E-03
-0.2683729361659E-01  0.4112409511475E-03
-0.5415933921332E+00 -0.4121588675585E+00
-0.5721639478635E+00 -0.4377219326712E+00
-0.6025284945137E+00 -0.4628324196102E+00
-0.6325262561399E+00 -0.4872860271975E+00
-0.6619946489436E+00 -0.5108864218516E+00
-0.6907694097266E+00 -0.5334461242498E+00
-0.7186841654424E+00 -0.5547883626940E+00
-0.7455700012188E+00 -0.5747491423434E+00
-0.7712549958318E+00 -0.5931794049156E+00
-0.7955636625922E+00 -0.6099473150636E+00
-0.8183162866596E+00 -0.6249408708803E+00
-0.8393282509790E+00 -0.6380711886519E+00
-0.8584095949263E+00 -0.6492769944992E+00
-0.8753652805717E+00 -0.6585310911379E+00
-0.8899969939208E+00 -0.6658498898115E+00
-0.9021078795559E+00 -0.6713075958575E+00
-0.9115127594523E+00 -0.6750575837383E+00
-0.9180596171152E+00 -0.6773659071979E+00
-0.9216791573753E+00 -0.6786678629168E+00
-0.2563362134973E+00 -0.3596805983474E-01
-0.2690867464047E+00 -0.2589159374933E-01
-0.2824818115566E+00 -0.1523725679687E-01
-0.2964524577886E+00 -0.4118220721234E-02
-0.3109161192531E+00  0.7364007754011E-02
-0.3257812051068E+00  0.1911664640752E-01
-0.3409499043967E+00  0.3105809306891E-01
-0.3563212656446E+00  0.4312065833441E-01
-0.3717952697539E+00  0.5525315237228E-01
-0.3872776110042E+00  0.6742270122792E-01
-0.4026847257013E+00  0.7961539081414E-01
-0.4179484569287E+00  0.9183538760944E-01
-0.4330196243317E+00  0.1041022975552E+00
-0.4478697217998E+00  0.1164467431674E+00
-0.4624900979162E+00  0.1289044940797E+00
-0.4768883755896E+00  0.1415099148502E+00
-0.4910824730460E+00  0.1542897770652E+00
-0.5050932292093E+00  0.1672584083603E+00
-0.5189364574078E+00  0.1804141077992E+00
-0.5221590405782E-03 -0.9946481406438E-03
-0.9622513614424E-03 -0.1930796506681E-02
-0.1327241166820E-02 -0.2784651195522E-02
-0.1680500538087E-02 -0.3612931552847E-02
-0.2035497736979E-02 -0.4424909063306E-02
-0.2402988244279E-02 -0.5227199750108E-02
-0.2789097025773E-02 -0.6022987514504E-02
-0.3198049539684E-02 -0.6814158398115E-02
-0.3632750425602E-02 -0.7601838543780E-02
-0.4095267993169E-02 -0.8386744763182E-02
-0.4587084756330E-02 -0.9169362585737E-02
-0.5109265555702E-02 -0.9950053950785E-02
-0.5662569887208E-02 -0.1072912714813E-01
-0.6247529924026E-02 -0.1150688216483E-01
-0.6864507504974E-02 -0.1228364440729E-01
-0.7513739204634E-02 -0.1305979439504E-01
-0.8195378980697E-02 -0.1383580240488E-01
-0.8909495284821E-02 -0.1461221992474E-01
-0.9656156416523E-02 -0.1538977901477E-01
-0.1043539327931E-01 -0.1616936869182E-01
-0.1124725118472E-01 -0.1695213145300E-01
-0.1209179842142E-01 -0.1773956573683E-01
-0.1296916781600E-01 -0.1853370155974E-01
-0.1387998569444E-01 -0.1933737211623E-01
-0.1482604003594E-01 -0.2015489519259E-01
-0.1580994852956E-01 -0.2099090416835E-01
-0.1683453830882E-01 -0.2184948120967E-01
-0.1790262113019E-01 -0.2273413258855E-01
-0.1901714128939E-01 -0.2364819497825E-01
-0.2018154509670E-01 -0.2459537732902E-01
-0.2140029363213E-01 -0.2558025775733E-01
-0.2267952213806E-01 -0.2660863427706E-01
-0.2402760182492E-01 -0.2768790211086E-01
-0.2545543900305E-01 -0.2882621838004E-01