<VTKFile type="UnstructuredGrid" version="1,0" byte_order="LittleEndian">
<UnstructuredGrid>
<Piece NumberOfPoints="5802" NumberOfCells="5680">
<Points>
<DataArray type="Float64" NumberOfComponents="3" format="ascii">
-0.1100000000000E+01 -0.4731587125634E+01  0.0000000000000E+00
 0.0000000000000E+00 -0.4731587125634E+01  0.0000000000000E+00
 0.1100000000000E+01 -0.4731587125634E+01  0.0000000000000E+00
-0.1191315091097E+01 -0.1825930012610E+01  0.0000000000000E+00
-0.5956575398395E+00 -0.1755172846926E+01  0.0000000000000E+00
 0.5956575512579E+00 -0.1755172847830E+01  0.0000000000000E+00
 0.1191315091097E+01 -0.1825930012610E+01  0.0000000000000E+00
-0.1487255332335E+01  0.3711246317436E+00  0.0000000000000E+00
 0.1487255329206E+01  0.3711246337271E+00  0.0000000000000E+00
-0.6187500000000E+00 -0.4973806884503E+00  0.0000000000000E+00
 0.6187500000000E+00 -0.4973806884503E+00  0.0000000000000E+00
-0.1072500000000E+01 -0.4731587125634E+01  0.0000000000000E+00
-0.1045000000000E+01 -0.4731587125634E+01  0.0000000000000E+00
-0.1017500000000E+01 -0.4731587125634E+01  0.0000000000000E+00
-0.9900000000000E+00 -0.4731587125634E+01  0.0000000000000E+00
-0.9625000000000E+00 -0.4731587125634E+01  0.0000000000000E+00
-0.9350000000000E+00 -0.4731587125634E+01  0.0000000000000E+00
-0.9075000000000E+00 -0.4731587125634E+01  0.0000000000000E+00
-0.8800000000000E+00 -0.4731587125634E+01  0.0000000000000E+00
-0.8525000000000E+00 -0.4731587125634E+01  0.0000000000000E+00
-0.8250000000000E+00 -0.4731587125634E+01  0.0000000000000E+00
-0.7975000000000E+00 -0.4731587125634E+01  0.0000000000000E+00
-0.7700000000000E+00 -0.4731587125634E+01  0.0000000000000E+00
-0.7425000000000E+00 -0.4731587125634E+01  0.0000000000000E+00
-0.7150000000000E+00 -0.4731587125634E+01  0.0000000000000E+00
-0.6875000000000E+00 -0.4731587125634E+01  0.0000000000000E+00
-0.6600000000000E+00 -0.4731587125634E+01  0.0000000000000E+00
-0.6325000000000E+00 -0.4731587125634E+01  0.0000000000000E+00
-0.6050000000000E+00 -0.4731587125634E+01  0.0000000000000E+00
-0.5775000000000E+00 -0.4731587125634E+01  0.0000000000000E+00
-0.5500000000000E+00 -0.4731587125634E+01  0.0000000000000E+00
-0.5225000000000E+00 -0.4731587125634E+01  0.0000000000000E+00
-0.4950000000000E+00 -0.4731587125634E+01  0.0000000000000E+00
-0.4675000000000E+00 -0.4731587125634E+01  0.0000000000000E+00
-0.4400000000000E+00 -0.4731587125634E+01  0.0000000000000E+00
-0.4125000000000E+00 -0.4731587125634E+01  0.0000000000000E+00
-0.3850000000000E+00 -0.4731587125634E+01  0.0000000000000E+00
-0.3575000000000E+00 -0.4731587125634E+01  0.0000000000000E+00
-0.3300000000000E+00 -0.4731587125634E+01  0.0000000000000E+00
-0.3025000000000E+00 -0.4731587125634E+01  0.0000000000000E+00
-0.2750000000000E+00 -0.4731587125634E+01  0.0000000000000E+00
-0.2475000000000E+00 -0.4731587125634E+01  0.0000000000000E+00
-0.2200000000000E+00 -0.4731587125634E+01  0.0000000000000E+00
-0.1925000000000E+00 -0.4731587125634E+01  0.0000000000000E+00
-0.1650000000000E+00 -0.4731587125634E+01  0.0000000000000E+00
-0.1375000000000E+00 -0.4731587125634E+01  0.0000000000000E+00
-0.1100000000000E+00 -0.4731587125634E+01  0.0000000000000E+00
-0.8250000000000E-01 -0.4731587125634E+01  0.0000000000000E+00
-0.5500000000000E-01 -0.4731587125634E+01  0.0000000000000E+00
-0.2750000000000E-01 -0.4731587125634E+01  0.0000000000000E+00
 0.2750000000000E-01 -0.4731587125634E+01  0.0000000000000E+00
 0.5500000000000E-01 -0.4731587125634E+01  0.0000000000000E+00
 0.8250000000000E-01 -0.4731587125634E+01  0.0000000000000E+00
 0.1100000000000E+00 -0.4731587125634E+01  0.0000000000000E+00
 0.1375000000000E+00 -0.4731587125634E+01  0.0000000000000E+00
 0.1650000000000E+00 -0.4731587125634E+01  0.0000000000000E+00
 0.1925000000000E+00 -0.4731587125634E+01  0.0000000000000E+00
 0.2200000000000E+00 -0.4731587125634E+01  0.0000000000000E+00
 0.2475000000000E+00 -0.4731587125634E+01  0.0000000000000E+00
 0.2750000000000E+00 -0.4731587125634E+01  0.0000000000000E+00
 0.3025000000000E+00 -0.4731587125634E+01  0.0000000000000E+00
 0.3300000000000E+00 -0.4731587125634E+01  0.0000000000000E+00
 0.3575000000000E+00 -0.4731587125634E+01  0.0000000000000E+00
 0.3850000000000E+00 -0.4731587125634E+01  0.0000000000000E+00
 0.4125000000000E+00 -0.4731587125634E+01  0.0000000000000E+00
 0.4400000000000E+00 -0.4731587125634E+01  0.0000000000000E+00
 0.4675000000000E+00 -0.4731587125634E+01  0.0000000000000E+00
 0.4950000000000E+00 -0.4731587125634E+01  0.0000000000000E+00
 0.5225000000000E+00 -0.4731587125634E+01  0.0000000000000E+00
 0.5500000000000E+00 -0.4731587125634E+01  0.0000000000000E+00
 0.5775000000000E+00 -0.4731587125634E+01  0.0000000000000E+00
 0.6050000000000E+00 -0.4731587125634E+01  0.0000000000000E+00
 0.6325000000000E+00 -0.4731587125634E+01  0.0000000000000E+00
 0.6600000000000E+00 -0.4731587125634E+01  0.0000000000000E+00
 0.6875000000000E+00 -0.4731587125634E+01  0.0000000000000E+00
 0.7150000000000E+00 -0.4731587125634E+01  0.0000000000000E+00
 0.7425000000000E+00 -0.4731587125634E+01  0.0000000000000E+00
 0.7700000000000E+00 -0.4731587125634E+01  0.0000000000000E+00
 0.7975000000000E+00 -0.4731587125634E+01  0.0000000000000E+00
 0.8250000000000E+00 -0.4731587125634E+01  0.0000000000000E+00
 0.8525000000000E+00 -0.4731587125634E+01  0.0000000000000E+00
 0.8800000000000E+00 -0.4731587125634E+01  0.0000000000000E+00
 0.9075000000000E+00 -0.4731587125634E+01  0.0000000000000E+00
 0.9350000000000E+00 -0.4731587125634E+01  0.0000000000000E+00
 0.9625000000000E+00 -0.4731587125634E+01  0.0000000000000E+00
 0.9900000000000E+00 -0.4731587125634E+01  0.0000000000000E+00
 0.1017500000000E+01 -0.4731587125634E+01  0.0000000000000E+00
 0.1045000000000E+01 -0.4731587125634E+01  0.0000000000000E+00
 0.1072500000000E+01 -0.4731587125634E+01  0.0000000000000E+00
-0.1161675590434E+01 -0.1821293974842E+01  0.0000000000000E+00
-0.1132018469080E+01 -0.1816772081031E+01  0.0000000000000E+00
-0.1102344135527E+01 -0.1812364599475E+01  0.0000000000000E+00
-0.1072653001422E+01 -0.1808071792594E+01  0.0000000000000E+00
-0.1042945459471E+01 -0.1803893913795E+01  0.0000000000000E+00
-0.1013221952450E+01 -0.1799831217138E+01  0.0000000000000E+00
-0.9834829017084E+00 -0.1795883946982E+01  0.0000000000000E+00
-0.9537287316532E+00 -0.1792052341512E+01  0.0000000000000E+00
-0.9239598612408E+00 -0.1788336631619E+01  0.0000000000000E+00
-0.8941767210493E+00 -0.1784737043031E+01  0.0000000000000E+00
-0.8643797539566E+00 -0.1781253796152E+01  0.0000000000000E+00
-0.8345693957871E+00 -0.1777887103664E+01  0.0000000000000E+00
-0.8047460850418E+00 -0.1774637171701E+01  0.0000000000000E+00
-0.7749102599775E+00 -0.1771504199483E+01  0.0000000000000E+00
-0.7450623578572E+00 -0.1768488379244E+01  0.0000000000000E+00
-0.7152028352234E+00 -0.1765589898169E+01  0.0000000000000E+00
-0.6853321404180E+00 -0.1762808935500E+01  0.0000000000000E+00
-0.6554507240472E+00 -0.1760145663610E+01  0.0000000000000E+00
-0.6255590388957E+00 -0.1757600247935E+01  0.0000000000000E+00
-0.5659320403842E+00 -0.1752877555980E+01  0.0000000000000E+00
-0.5361977827764E+00 -0.1750699115345E+01  0.0000000000000E+00
-0.5064551822954E+00 -0.1748637656849E+01  0.0000000000000E+00
-0.4767046834532E+00 -0.1746693307634E+01  0.0000000000000E+00
-0.4469467825907E+00 -0.1744866190914E+01  0.0000000000000E+00
-0.4171818756954E+00 -0.1743156416506E+01  0.0000000000000E+00
-0.3874104734057E+00 -0.1741564093885E+01  0.0000000000000E+00
-0.3576330176963E+00 -0.1740089321191E+01  0.0000000000000E+00
-0.3278499563594E+00 -0.1738732189839E+01  0.0000000000000E+00
-0.2980617833702E+00 -0.1737492785992E+01  0.0000000000000E+00
-0.2682689204519E+00 -0.1736371185422E+01  0.0000000000000E+00
-0.2384718656336E+00 -0.1735367459648E+01  0.0000000000000E+00
-0.2086710716336E+00 -0.1734481671049E+01  0.0000000000000E+00
-0.1788669979735E+00 -0.1733713874997E+01  0.0000000000000E+00
-0.1490601279746E+00 -0.1733064120054E+01  0.0000000000000E+00
-0.1192509059245E+00 -0.1732532446511E+01  0.0000000000000E+00
-0.8943981808141E-01 -0.1732118888112E+01  0.0000000000000E+00
-0.5962732433722E-01 -0.1731823470688E+01  0.0000000000000E+00
-0.2981389296327E-01 -0.1731646212812E+01  0.0000000000000E+00
 0.5727055524263E-08 -0.1731587125634E+01  0.0000000000000E+00
 0.2981390441730E-01 -0.1731646212857E+01  0.0000000000000E+00
 0.5962733579097E-01 -0.1731823470779E+01  0.0000000000000E+00
 0.8943982953471E-01 -0.1732118888248E+01  0.0000000000000E+00
 0.1192509173772E+00 -0.1732532446692E+01  0.0000000000000E+00
 0.1490601394265E+00 -0.1733064120281E+01  0.0000000000000E+00
 0.1788670094244E+00 -0.1733713875269E+01  0.0000000000000E+00
 0.2086710830833E+00 -0.1734481671367E+01  0.0000000000000E+00
 0.2384718770819E+00 -0.1735367460011E+01  0.0000000000000E+00
 0.2682689318987E+00 -0.1736371185830E+01  0.0000000000000E+00
 0.2980617948153E+00 -0.1737492786445E+01  0.0000000000000E+00
 0.3278499678026E+00 -0.1738732190338E+01  0.0000000000000E+00
 0.3576330291375E+00 -0.1740089321735E+01  0.0000000000000E+00
 0.3874104848446E+00 -0.1741564094474E+01  0.0000000000000E+00
 0.4171818871319E+00 -0.1743156417141E+01  0.0000000000000E+00
 0.4469467940246E+00 -0.1744866191594E+01  0.0000000000000E+00
 0.4767046948843E+00 -0.1746693308359E+01  0.0000000000000E+00
 0.5064551937236E+00 -0.1748637657619E+01  0.0000000000000E+00
 0.5361977942015E+00 -0.1750699116160E+01  0.0000000000000E+00
 0.5659320518060E+00 -0.1752877556840E+01  0.0000000000000E+00
 0.6255590497397E+00 -0.1757600248837E+01  0.0000000000000E+00
 0.6554507343169E+00 -0.1760145664505E+01  0.0000000000000E+00
 0.6853321501138E+00 -0.1762808936384E+01  0.0000000000000E+00
 0.7152028443456E+00 -0.1765589899036E+01  0.0000000000000E+00
 0.7450623664059E+00 -0.1768488380091E+01  0.0000000000000E+00
 0.7749102679531E+00 -0.1771504200305E+01  0.0000000000000E+00
 0.8047460924447E+00 -0.1774637172493E+01  0.0000000000000E+00
 0.8345694026177E+00 -0.1777887104422E+01  0.0000000000000E+00
[...]
<PointData Vectors="'U'">
<DataArray type="Float64" Name="U" NumberOfComponents="2" ComponentName0="U1" ComponentName1="U2" format="ascii">
 0.4816650841612E-37  0.1214256741747E-36
-0.2910866331962E-37 -0.2191319703131E-37
 0.2878071603271E-37 -0.7276675674362E-37
 0.2337329882774E-01  0.4801533677643E-03
 0.2645603166393E-01 -0.4526883101524E-02
 0.3449536680551E-01 -0.2292077799867E-01
 0.4254924611018E-01 -0.4752778869591E-01
 0.3766961507024E+00  0.7499080967025E-01
 0.8385728199356E+00 -0.6146795257459E+00
 0.9652801180956E-01 -0.1996490369201E+00
 0.5510768517399E+00 -0.4832624597948E+00
-0.1884345027964E-37  0.7148793029179E-37
-0.1745112929858E-37  0.6046079678326E-37
-0.1848988741459E-37  0.5535202350327E-37
-0.1971215351078E-37  0.5199301747153E-37
-0.2080455336036E-37  0.4931013813766E-37
-0.2174791515753E-37  0.4693760657679E-37
-0.2256647299157E-37  0.4472465832783E-37
-0.2328496471899E-37  0.4260041144010E-37
-0.2392253110996E-37  0.4052823658633E-37
-0.2449327335517E-37  0.3848781858057E-37
-0.2500761841830E-37  0.3646725458208E-37
-0.2547343101554E-37  0.3445925560769E-37
-0.2589678718530E-37  0.3245918943369E-37
-0.2628249220210E-37  0.3046401613251E-37
-0.2663442712910E-37  0.2847168262269E-37
-0.2695578406571E-37  0.2648076478879E-37
-0.2724922882961E-37  0.2449025164496E-37
-0.2751701600206E-37  0.2249941013755E-37
-0.2776107096841E-37  0.2050770111542E-37
-0.2798299104496E-37  0.1851475232004E-37
-0.2818467817506E-37  0.1651304528153E-37
-0.2836698649589E-37  0.1450954527455E-37
-0.2853097676990E-37  0.1250405745382E-37
-0.2867761525870E-37  0.1049644555113E-37
-0.2880775194361E-37  0.8486613388613E-38
-0.2892213280004E-37  0.6474502857362E-38
-0.2902141133313E-37  0.4460080916395E-38
-0.2910615764615E-37  0.2443343426313E-38
-0.2917686619691E-37  0.4243097244303E-39
-0.2923396227404E-37 -0.1596981031493E-38
-0.2927780715407E-37 -0.3620467112558E-38
-0.2930870266125E-37 -0.5646071691689E-38
-0.2932689476733E-37 -0.7673699800852E-38
-0.2933257664749E-37 -0.9703242041716E-38
-0.2932589123474E-37 -0.1173457698494E-37
-0.2930693322435E-37 -0.1376757056983E-37
-0.2927575074334E-37 -0.1580208118261E-37
-0.2923234661120E-37 -0.1783795907882E-37
-0.2917667925446E-37 -0.1987504994647E-37
-0.2902816996013E-37 -0.2395224349447E-37
-0.2893502681330E-37 -0.2599203527609E-37
-0.2882901766368E-37 -0.2803242417900E-37
-0.2870988177714E-37 -0.3007327089337E-37
-0.2857731287059E-37 -0.3211444825772E-37
-0.2843095769198E-37 -0.3415584644778E-37
-0.2827041421222E-37 -0.3619737457498E-37
-0.2809522922347E-37 -0.3823896854556E-37
-0.2790489551691E-37 -0.4028059392768E-37
-0.2769884829260E-37 -0.4232225263433E-37
-0.2747646081749E-37 -0.4436399184651E-37
-0.2723703934684E-37 -0.4640590733177E-37
-0.2697981661568E-37 -0.4844815864731E-37
-0.2670394444548E-37 -0.5049097579463E-37
-0.2640848444995E-37 -0.5253467440078E-37
-0.2609239680751E-37 -0.5457967526809E-37
-0.2575452709020E-37 -0.5662651804243E-37
-0.2539358947599E-37 -0.5867589604994E-37
-0.2500814839199E-37 -0.6072868596207E-37
-0.2459660231331E-37 -0.6278598285870E-37
-0.2415763054866E-37 -0.6484197330406E-37
-0.2368860971225E-37 -0.6690561660959E-37
-0.2318726713948E-37 -0.6897904122922E-37
-0.2265087271677E-37 -0.7106501770027E-37
-0.2207624214989E-37 -0.7316710345442E-37
-0.2145962111161E-37 -0.7528991553138E-37
-0.2079652571898E-37 -0.7743953065441E-37
-0.2008152052653E-37 -0.7962408156763E-37
-0.1930790335968E-37 -0.8185467549945E-37
-0.1846725097013E-37 -0.8414684979947E-37
-0.1754875784477E-37 -0.8652297029540E-37
-0.1653828325988E-37 -0.8901636745920E-37
-0.1541705910979E-37 -0.9167887451828E-37
-0.1416032368980E-37 -0.9459555717321E-37
-0.1273769221412E-37 -0.9791616563482E-37
-0.1112422105330E-37 -0.1019305956085E-36
-0.9366336477858E-38 -0.1072808097240E-36
-0.7948025977143E-38 -0.1157004144749E-36
-0.1013390693600E-37 -0.1334857291999E-36
 0.2361712518858E-01  0.8321141072587E-03
 0.2379401161864E-01  0.8944910521708E-03
 0.2395509465652E-01  0.8239921869297E-03
 0.2410757703268E-01  0.6782223566704E-03
 0.2425527625044E-01  0.4825952719721E-03
 0.2440028462809E-01  0.2509320362253E-03
 0.2454385678345E-01 -0.8310011737886E-05
 0.2468677403446E-01 -0.2894922022543E-03
 0.2482955006434E-01 -0.5886130891534E-03
 0.2497254515946E-01 -0.9026980875748E-03
 0.2511602981475E-01 -0.1229457964769E-02
 0.2526021971816E-01 -0.1567084461777E-02
 0.2540529455247E-01 -0.1914120291271E-02
 0.2555140788684E-01 -0.2269372400603E-02
 0.2569869194911E-01 -0.2631851267321E-02
 0.2584725931658E-01 -0.3000725900649E-02
 0.2599720285586E-01 -0.3375288762804E-02
 0.2614859695689E-01 -0.3754921211818E-02
 0.2630149347464E-01 -0.4139054808390E-02
 0.2661081275277E-01 -0.4916383590428E-02
 0.2676826305044E-01 -0.5309826214308E-02
 0.2692800246343E-01 -0.5706582464554E-02
 0.2708999080002E-01 -0.6106409554343E-02
 0.2725423002016E-01 -0.6509098136918E-02
 0.2742074444274E-01 -0.6914482555181E-02
 0.2758956317809E-01 -0.7322430880145E-02
 0.2776071562612E-01 -0.7732843901385E-02
 0.2793422836645E-01 -0.8145651107959E-02
 0.2811012376248E-01 -0.8560807943971E-02
 0.2828842020730E-01 -0.8978295872883E-02
 0.2846913115248E-01 -0.9398119199937E-02
 0.2865226593714E-01 -0.9820306039455E-02
 0.2883782970072E-01 -0.1024490715601E-01
 0.2902582356842E-01 -0.1067199553720E-01
 0.2921624539729E-01 -0.1110166732396E-01
 0.2940908965861E-01 -0.1153404087014E-01
 0.2960434830506E-01 -0.1196925811615E-01
 0.2980201101720E-01 -0.1240748463919E-01
 0.3000206574446E-01 -0.1284891044823E-01
 0.3020449927300E-01 -0.1329375091495E-01
 0.3040929777243E-01 -0.1374224774210E-01
 0.3061644737232E-01 -0.1419467009238E-01
 0.3082593482434E-01 -0.1465131601236E-01
 0.3103774820401E-01 -0.1511251407053E-01
 0.3125187734178E-01 -0.1557862456878E-01
 0.3146831500855E-01 -0.1605004259486E-01
 0.3168705703419E-01 -0.1652719901637E-01
 0.3190810344472E-01 -0.1701056404157E-01
 0.3213145897429E-01 -0.1750064989230E-01
 0.3235713318545E-01 -0.1799801327491E-01
 0.3258514167897E-01 -0.1850326118786E-01
 0.3281550484682E-01 -0.1901705270043E-01
 0.3304824791887E-01 -0.1954010561185E-01
 0.3328339850520E-01 -0.2007320058874E-01
 0.3352098159124E-01 -0.2061718391514E-01
 0.3376101284159E-01 -0.2117297184072E-01
 0.3400348195332E-01 -0.2174153822855E-01
 0.3424833172757E-01 -0.2232386975677E-01
 0.3474689649790E-01 -0.2353895620844E-01
 0.3500332916622E-01 -0.2417580662953E-01
 0.3526441113682E-01 -0.2483308891756E-01
 0.3553030151306E-01 -0.2551287678770E-01
 0.3580132813401E-01 -0.2621749915305E-01
 0.3607797704929E-01 -0.2694964297304E-01
 0.3636090358741E-01 -0.2771245144571E-01
 0.3665097225323E-01 -0.2850965519995E-01
 0.3694932505338E-01 -0.2934575367193E-01
 0.3725749082719E-01 -0.3022627993789E-01
 0.3757755714364E-01 -0.3115820117342E-01
 0.3791244150878E-01 -0.3215054907890E-01
 0.3826632210285E-01 -0.3321546119864E-01
 0.3864531981419E-01 -0.3436998932888E-01
 0.3905856022151E-01 -0.3563942994473E-01
 0.3951976852210E-01 -0.3706388523912E-01
 0.4004942261161E-01 -0.3871238139167E-01
 0.4067789043354E-01 -0.4071684938641E-01
 0.4144626154754E-01 -0.4337911779576E-01
-0.1585841515376E-01 -0.1839742121453E-01
-0.4024990356528E-01 -0.2629703392105E-01
-0.5658988031625E-01 -0.2533189436503E-01
-0.6515499167377E-01 -0.1935410340131E-01
-0.6693881878996E-01 -0.9773127935766E-02
-0.6273823940034E-01  0.2636122123431E-02
-0.5304596807768E-01  0.1680655692016E-01
-0.3839332960663E-01  0.3187314920615E-01
-0.1923221719166E-01  0.4736765053669E-01
 0.4139766668216E-02  0.6288128545435E-01
 0.3148823017574E-01  0.7796526827620E-01
 0.6257207772652E-01  0.9210508108747E-01
 0.9710366380304E-01  0.1048821860488E+00
 0.1347609327796E+00  0.1157984530557E+00
 0.1751416553604E+00  0.1241953385497E+00
 0.2177178101194E+00  0.1295131770676E+00
 0.2619858971806E+00  0.1319014560440E+00
 0.3063012390156E+00  0.1258427098610E+00
 0.3462117138897E+00  0.1064704652703E+00
 0.3893429801769E+00  0.4961728240468E-01
 0.3987381816680E+00  0.2276666898037E-01
 0.4054933571360E+00 -0.5043210551121E-02
 0.4095386805728E+00 -0.3362532146517E-01
 0.4110011914033E+00 -0.6287688766583E-01
 0.4106451202849E+00 -0.9293995752493E-01
 0.4090284432836E+00 -0.1242007258085E+00
 0.4066126522523E+00 -0.1573099845696E+00
 0.4038816888433E+00 -0.1932927414026E+00
 0.4015069870477E+00 -0.2338721575778E+00
 0.4012435008419E+00 -0.2818548012263E+00
 0.4042227587281E+00 -0.3372040614263E+00
 0.4102643338438E+00 -0.3964484853600E+00
 0.4192245349256E+00 -0.4567248271604E+00
 0.4310508555265E+00 -0.5159437561523E+00
 0.4456905596548E+00 -0.5725498930674E+00
 0.4630509086415E+00 -0.6253927500816E+00
 0.4829804360491E+00 -0.6736320400099E+00
 0.5052576414866E+00 -0.7166669501723E+00
 0.5295743717000E+00 -0.7540859361729E+00
 0.5555057803275E+00 -0.7856232966014E+00
 0.5825115483004E+00 -0.8110771141310E+00
 0.6100709154072E+00 -0.8303478835106E+00
 0.6376903267616E+00 -0.8434382065394E+00
 0.6648771758473E+00 -0.8504485147016E+00
 0.6911205637732E+00 -0.8515814289466E+00
 0.7158722951686E+00 -0.8471539572474E+00
 0.7385256782258E+00 -0.8376186951317E+00
 0.7584050935583E+00 -0.8235852292160E+00
 0.7748285396180E+00 -0.8057790415397E+00
 0.7874188644232E+00 -0.7847358813777E+00
 0.7965102815795E+00 -0.7606824658483E+00
 0.8030241059003E+00 -0.7340869526286E+00
 0.8081741145781E+00 -0.7059227395263E+00
 0.8130481203694E+00 -0.6780875800221E+00
 0.8178261946482E+00 -0.6542293631045E+00
 0.8227101835207E+00 -0.6370458183064E+00
 0.8280162366536E+00 -0.6258091140151E+00
 0.8334401747199E+00 -0.6187311662950E+00
 0.8462958924596E+00 -0.6128044160639E+00
 0.8511435719850E+00 -0.6149013421020E+00
 0.8515593396652E+00 -0.6187110747605E+00
 0.8467027651703E+00 -0.6226362087017E+00
 0.8366316787931E+00 -0.6259445059416E+00
 0.8213466159539E+00 -0.6273982678094E+00
 0.8009903652054E+00 -0.6261624624685E+00
 0.7758577109059E+00 -0.6216296714497E+00
 0.7462565336524E+00 -0.6132150667934E+00
 0.7124672946038E+00 -0.6003042320907E+00
 0.6747299480559E+00 -0.5823637716316E+00
 0.6331894580220E+00 -0.5585972939482E+00
 0.5879674885207E+00 -0.5276070902940E+00
 0.5394313327382E+00 -0.4872978671876E+00
 0.4880118024723E+00 -0.4372117654850E+00
 0.4328401151641E+00 -0.3806963359234E+00
 0.3715981125567E+00 -0.3181852559449E+00
 0.3000669075733E+00 -0.2471228603027E+00
 0.2107377773266E+00 -0.1567944463984E+00
 0.7982983666234E-04  0.1965119947329E-03
 0.1457371255549E-03  0.3724666361130E-03
 0.2401136501575E-03  0.5542973275078E-03
 0.3690137409993E-03  0.7384983397760E-03
 0.5356954431588E-03  0.9234824440107E-03
 0.7412722963430E-03  0.1107723843491E-02
 0.9861524999347E-03  0.1289928940505E-02
 0.1270283325339E-02  0.1468998806740E-02
 0.1593368051719E-02  0.1643981633133E-02
 0.1954955388179E-02  0.1814038799379E-02
 0.2354497077572E-02  0.1978414345331E-02
 0.2791378761338E-02  0.2136409321801E-02
 0.3264938581572E-02  0.2287359849384E-02
 0.3774474495006E-02  0.2430617166728E-02
 0.4319244684980E-02  0.2565529864076E-02
 0.4898464032017E-02  0.2691428259296E-02
 0.5511302210163E-02  0.2807611087197E-02
 0.6156842112966E-02  0.2913327849803E-02
 0.6834118400462E-02  0.3007776004915E-02
 0.7542044441506E-02  0.3090081630957E-02
 0.8279419061999E-02  0.3159293614153E-02
 0.9044898237449E-02  0.3214371455293E-02
 0.9836968548902E-02  0.3254170365245E-02
 0.1065392374697E-01  0.3277621514930E-02
 0.1149378165481E-01  0.3284691700734E-02
 0.1235414619334E-01  0.3275855095983E-02
 0.1323210848644E-01  0.3251507972969E-02
 0.1412421625162E-01  0.3211734109637E-02
 0.1502648661230E-01  0.3156304105588E-02
 0.1593440333774E-01  0.3084819595433E-02
 0.1684289258132E-01  0.2996886282241E-02
 0.1774623667872E-01  0.2892283056690E-02
 0.1863798086946E-01  0.2771222372216E-02
 0.1951105914685E-01  0.2633370043253E-02
 0.2035770901069E-01  0.2477029906121E-02
 0.2116888799832E-01  0.2299836254076E-02
 0.2193262292668E-01  0.2097789668807E-02
 0.2263397101984E-01  0.1863281869282E-02
 0.2323642143959E-01  0.1579931620760E-02
 0.2373263584962E-01  0.1183083258920E-02
 0.3486750305280E-01 -0.4287287001482E-01
 0.3198773029008E-01 -0.3992929186164E-01
 0.2957318044229E-01 -0.3773132482595E-01
 0.2758343366019E-01 -0.3586228630119E-01
 0.2583413331000E-01 -0.3420358244460E-01
 0.2426382853486E-01 -0.3269221040230E-01
 0.2282916193879E-01 -0.3129099968935E-01
 0.2150413829454E-01 -0.2997741891610E-01
 0.2027053182723E-01 -0.2873805946531E-01
 0.1911468253373E-01 -0.2756327218296E-01
 0.1802585857146E-01 -0.2644409750128E-01
 0.1699593154251E-01 -0.2537308720191E-01
 0.1601868104876E-01 -0.2434455806527E-01
 0.1508910645213E-01 -0.2335416812762E-01
 0.1420290448841E-01 -0.2239832870184E-01
 0.1335609727401E-01 -0.2147346667251E-01
 0.1254488447677E-01 -0.2057527977694E-01
 0.1176585466071E-01 -0.1969832329473E-01
 0.1101656401678E-01 -0.1883668306424E-01
 0.1029582815529E-01 -0.1798610990164E-01
 0.9603020907645E-02 -0.1714393891557E-01
 0.8937647629617E-02 -0.1630824232525E-01
 0.8299297974774E-02 -0.1547751176170E-01
 0.7687621029562E-02 -0.1465054290622E-01
 0.7102267086451E-02 -0.1382632766876E-01
 0.6542907418589E-02 -0.1300407541345E-01
 0.6009149753533E-02 -0.1218310508600E-01
 0.5500529971045E-02 -0.1136285148984E-01
 0.5016464730032E-02 -0.1054282652840E-01
 0.4556201588409E-02 -0.9722586173223E-02
 0.4118757675780E-02 -0.8901694215926E-02
 0.3702838636697E-02 -0.8079675515051E-02
 0.3306722628877E-02 -0.7255946555596E-02
 0.2928097326060E-02 -0.6429712036128E-02
 0.2563785579916E-02 -0.5599797974146E-02
 0.2209374330337E-02 -0.4764335107552E-02
 0.1858202631745E-02 -0.3920215957194E-02
 0.1500680585718E-02 -0.3061718323325E-02
 0.1117241651945E-02 -0.2176488114101E-02
 0.6778285574286E-03 -0.1246930902886E-02
 0.1036944597037E+00 -0.2114341729289E+00
 0.1110862268974E+00 -0.2234765600876E+00
 0.1187761212244E+00 -0.2357275832617E+00
 0.1267918703946E+00 -0.2481503039099E+00
 0.1351521685620E+00 -0.2607043715824E+00
 0.1438704486225E+00 -0.2733461382755E+00
 0.1529561368285E+00 -0.2860291763526E+00
 0.1624149339622E+00 -0.2987045642489E+00
 0.1722487541624E+00 -0.3113213644977E+00
 0.1824557662604E+00 -0.3238274250945E+00
 0.1930304314227E+00 -0.3361700155647E+00
 0.2039636291390E+00 -0.3482964718070E+00
 0.2152428387441E+00 -0.3601546554996E+00
 0.2268523037226E+00 -0.3716935389901E+00
 0.2387731699926E+00 -0.3828639097721E+00
 0.2509836716946E+00 -0.3936190785169E+00
 0.2634593507251E+00 -0.4039155070869E+00
 0.2761733247656E+00 -0.4137133609894E+00
 0.2890965894276E+00 -0.4229769778812E+00
 0.3021983434747E+00 -0.4316752551965E+00
 0.3154463221539E+00 -0.4397819525193E+00
 0.3288071176490E+00 -0.4472758777960E+00
 0.3422464990194E+00 -0.4541410408221E+00
 0.3557297237660E+00 -0.4603667672671E+00
 0.3692218403256E+00 -0.4659477397033E+00
 0.3826879742433E+00 -0.4708839672555E+00
 0.3960935920911E+00 -0.4751806852562E+00
 0.4094047319540E+00 -0.4788481839503E+00
 0.4225882156244E+00 -0.4819015688356E+00
 0.4356118014422E+00 -0.4843604318258E+00
 0.4484442993974E+00 -0.4862484260777E+00
 0.4610556802383E+00 -0.4875929790664E+00
 0.4734172739509E+00 -0.4884252642588E+00
 0.4855020571749E+00 -0.4887800497921E+00
 0.4972851257222E+00 -0.4886955387787E+00
 0.5087441648356E+00 -0.4882132727715E+00
 0.5198603736806E+00 -0.4873783087519E+00
 0.5306199295703E+00 -0.4862390431898E+00
 0.5410172643078E+00 -0.4848464752225E+00
 0.8088152310870E-01 -0.1877529799348E+00
 0.6601893166410E-01 -0.1758631767726E+00
 0.5200127828526E-01 -0.1638859238126E+00
 0.3888308389268E-01 -0.1518674132647E+00
 0.2671392955646E-01 -0.1398762652303E+00
 0.1554253534678E-01 -0.1279785566650E+00
 0.5440263800953E-02 -0.1162345497233E+00
-0.3508898083190E-02 -0.1046980797149E+00
-0.1121381030919E-01 -0.9341735047119E-01
-0.1757722906213E-01 -0.8243883624892E-01
-0.2249197570572E-01 -0.7181450615334E-01
-0.2583339351129E-01 -0.6160847424782E-01
-0.2745240721794E-01 -0.5189830616201E-01
-0.2717505939664E-01 -0.4277057024080E-01
-0.2480626556349E-01 -0.3431539581281E-01
-0.2013488672583E-01 -0.2662006790763E-01
-0.1293794795612E-01 -0.1975697776522E-01
-0.2970389859281E-02 -0.1377633825872E-01
 0.1005057868741E-01 -0.8702227510834E-02
 0.5304729460761E+00 -0.4547521458672E+00
 0.5093349568533E+00 -0.4263389327400E+00
 0.4876148227409E+00 -0.3979695807752E+00
 0.4652736171507E+00 -0.3696899279829E+00
 0.4422932664209E+00 -0.3415617949364E+00
 0.4186665630223E+00 -0.3136498899591E+00
 0.3943791269610E+00 -0.2860276071742E+00
 0.3694241343267E+00 -0.2587837515309E+00
 0.3438124062941E+00 -0.2320288627111E+00
 0.3175774394741E+00 -0.2059003846320E+00
 0.2907700945649E+00 -0.1805626010960E+00
 0.2634440905260E+00 -0.1562015770220E+00
 0.2356452503494E+00 -0.1330202965778E+00
 0.2074170646598E+00 -0.1112373975659E+00
 0.1788192632997E+00 -0.9108639323174E-01
 0.1499388171331E+00 -0.7280925570981E-01
 0.1208870706093E+00 -0.5664656396522E-01
 0.9181453555738E-01 -0.4282872556047E-01
 0.6292971430925E-01 -0.3155254663703E-01
 0.1005540445831E+00 -0.1928902312479E+00
 0.1059478114083E+00 -0.1845197299020E+00
 0.1128365441189E+00 -0.1746781467611E+00
 0.1212450254089E+00 -0.1635166324006E+00
 0.1311645965921E+00 -0.1511925695501E+00
 0.1425555242899E+00 -0.1378783524851E+00
 0.1553450456165E+00 -0.1237575963927E+00
 0.1694258209409E+00 -0.1090189156399E+00
 0.1846568268983E+00 -0.9384763670675E-01
 0.2008670648578E+00 -0.7841646337993E-01
 0.2178622503266E+00 -0.6287579447761E-01
 0.2354344449698E+00 -0.4734454403313E-01
 0.2533742668723E+00 -0.3190254284929E-01
 0.2714847278937E+00 -0.1658589251863E-01
 0.2895948600709E+00 -0.1386845035476E-02
 0.3075702968600E+00  0.1374041150670E-01
 0.3253173215418E+00  0.2886756020493E-01
 0.3427779072507E+00  0.4407503781207E-01
 0.3599144700371E+00  0.5943243964778E-01
 0.5830405072289E+00 -0.5055370282252E+00
 0.6141870067640E+00 -0.5264661408980E+00
 0.6442500794694E+00 -0.5458579980270E+00
 0.6730040152167E+00 -0.5635443982689E+00
 0.7002308578880E+00 -0.5793740783235E+00
 0.7257194784169E+00 -0.5932234607081E+00
 0.7492676489290E+00 -0.6050019181285E+00
 0.7706853259748E+00 -0.6146568909208E+00
 0.7897984684064E+00 -0.6221786093263E+00
 0.8064536168579E+00 -0.6276047023227E+00
 0.8205236691898E+00 -0.6310247232100E+00
 0.8319154867342E+00 -0.6325845426298E+00
 0.8405801813067E+00 -0.6324903929055E+00
 0.8465271645649E+00 -0.6310120395392E+00
 0.8498431951895E+00 -0.6284839503856E+00
 0.8507173308740E+00 -0.6253020527549E+00
 0.8494712096366E+00 -0.6219112905481E+00
 0.8465874021333E+00 -0.6187733769863E+00
 0.8427142401316E+00 -0.6162965999470E+00
 0.5998161313732E-04  0.1698351113461E-03
 0.1296500118946E-03  0.3425456957757E-03
 0.2233984127395E-03  0.5117771394150E-03
 0.3527510323212E-03  0.6823912696136E-03
 0.5199755486435E-03  0.8529741696544E-03
 0.7263831572865E-03  0.1022514092014E-02
 0.9723183353480E-03  0.1189926694631E-02
 0.1257722435601E-02  0.1354240673031E-02
 0.1582281820671E-02  0.1514580356128E-02
 0.1945533719798E-02  0.1670155296464E-02
 0.2346919855599E-02  0.1820241225207E-02
 0.2785818009966E-02  0.1964161293210E-02
 0.3261560166656E-02  0.2101268508671E-02
 0.3773439627312E-02  0.2230928836189E-02
 0.4320711144490E-02  0.2352505704035E-02
 0.4902587131815E-02  0.2465346130381E-02
 0.5518235438045E-02  0.2568768986555E-02
 0.6166737451799E-02  0.2662048756485E-02
 0.6847126397135E-02  0.2744413589100E-02
 0.7558313890808E-02  0.2815027458333E-02
 0.8299096468721E-02  0.2872985249660E-02
 0.9068127264285E-02  0.2917301744815E-02
 0.9863890189472E-02  0.2946895402673E-02
 0.1068467451295E-01  0.2960776144217E-02
 0.1152848788481E-01  0.2959036949889E-02
 0.1239290925500E-01  0.2942359591441E-02
 0.1327498735025E-01  0.2911383485744E-02
 0.1417121333813E-01  0.2866435072385E-02
 0.1507753753787E-01  0.2807522134452E-02
 0.1598936806167E-01  0.2734493284832E-02
 0.1690154394802E-01  0.2647234304129E-02
 0.1780824243678E-01  0.2545863330768E-02
 0.1870289983624E-01  0.2430879397197E-02
 0.1957835191157E-01  0.2302142458566E-02