<VTKFile type="UnstructuredGrid" version="1,0" byte_order="LittleEndian">
<UnstructuredGrid>
<Piece NumberOfPoints="5802" NumberOfCells="5680">
<Points>
<DataArray type="Float64" NumberOfComponents="3" format="ascii">
-0.1100000000000E+01 -0.4304044648606E+01  0.0000000000000E+00
 0.0000000000000E+00 -0.4304044648606E+01  0.0000000000000E+00
 0.1100000000000E+01 -0.4304044648606E+01  0.0000000000000E+00
-0.1426338184892E+01 -0.1495137730994E+01  0.0000000000000E+00
-0.7131690856113E+00 -0.1351817918288E+01  0.0000000000000E+00
 0.7131690992823E+00 -0.1351817920119E+01  0.0000000000000E+00
 0.1426338184892E+01 -0.1495137730994E+01  0.0000000000000E+00
-0.1297471036855E+01  0.8924645033579E+00  0.0000000000000E+00
 0.1297471037589E+01  0.8924645030013E+00  0.0000000000000E+00
-0.7500000000000E+00  0.3449934570704E+00  0.0000000000000E+00
 0.7500000000000E+00  0.3449934570704E+00  0.0000000000000E+00
-0.1072500000000E+01 -0.4304044648606E+01  0.0000000000000E+00
-0.1045000000000E+01 -0.4304044648606E+01  0.0000000000000E+00
-0.1017500000000E+01 -0.4304044648606E+01  0.0000000000000E+00
-0.9900000000000E+00 -0.4304044648606E+01  0.0000000000000E+00
-0.9625000000000E+00 -0.4304044648606E+01  0.0000000000000E+00
-0.9350000000000E+00 -0.4304044648606E+01  0.0000000000000E+00
-0.9075000000000E+00 -0.4304044648606E+01  0.0000000000000E+00
-0.8800000000000E+00 -0.4304044648606E+01  0.0000000000000E+00
-0.8525000000000E+00 -0.4304044648606E+01  0.0000000000000E+00
-0.8250000000000E+00 -0.4304044648606E+01  0.0000000000000E+00
-0.7975000000000E+00 -0.4304044648606E+01  0.0000000000000E+00
-0.7700000000000E+00 -0.4304044648606E+01  0.0000000000000E+00
-0.7425000000000E+00 -0.4304044648606E+01  0.0000000000000E+00
-0.7150000000000E+00 -0.4304044648606E+01  0.0000000000000E+00
-0.6875000000000E+00 -0.4304044648606E+01  0.0000000000000E+00
-0.6600000000000E+00 -0.4304044648606E+01  0.0000000000000E+00
-0.6325000000000E+00 -0.4304044648606E+01  0.0000000000000E+00
-0.6050000000000E+00 -0.4304044648606E+01  0.0000000000000E+00
-0.5775000000000E+00 -0.4304044648606E+01  0.0000000000000E+00
-0.5500000000000E+00 -0.4304044648606E+01  0.0000000000000E+00
-0.5225000000000E+00 -0.4304044648606E+01  0.0000000000000E+00
-0.4950000000000E+00 -0.4304044648606E+01  0.0000000000000E+00
-0.4675000000000E+00 -0.4304044648606E+01  0.0000000000000E+00
-0.4400000000000E+00 -0.4304044648606E+01  0.0000000000000E+00
-0.4125000000000E+00 -0.4304044648606E+01  0.0000000000000E+00
-0.3850000000000E+00 -0.4304044648606E+01  0.0000000000000E+00
-0.3575000000000E+00 -0.4304044648606E+01  0.0000000000000E+00
-0.3300000000000E+00 -0.4304044648606E+01  0.0000000000000E+00
-0.3025000000000E+00 -0.4304044648606E+01  0.0000000000000E+00
-0.2750000000000E+00 -0.4304044648606E+01  0.0000000000000E+00
-0.2475000000000E+00 -0.4304044648606E+01  0.0000000000000E+00
-0.2200000000000E+00 -0.4304044648606E+01  0.0000000000000E+00
-0.1925000000000E+00 -0.4304044648606E+01  0.0000000000000E+00
-0.1650000000000E+00 -0.4304044648606E+01  0.0000000000000E+00
-0.1375000000000E+00 -0.4304044648606E+01  0.0000000000000E+00
-0.1100000000000E+00 -0.4304044648606E+01  0.0000000000000E+00
-0.8250000000000E-01 -0.4304044648606E+01  0.0000000000000E+00
-0.5500000000000E-01 -0.4304044648606E+01  0.0000000000000E+00
-0.2750000000000E-01 -0.4304044648606E+01  0.0000000000000E+00
 0.2750000000000E-01 -0.4304044648606E+01  0.0000000000000E+00
 0.5500000000000E-01 -0.4304044648606E+01  0.0000000000000E+00
 0.8250000000000E-01 -0.4304044648606E+01  0.0000000000000E+00
 0.1100000000000E+00 -0.4304044648606E+01  0.0000000000000E+00
 0.1375000000000E+00 -0.4304044648606E+01  0.0000000000000E+00
 0.1650000000000E+00 -0.4304044648606E+01  0.0000000000000E+00
 0.1925000000000E+00 -0.4304044648606E+01  0.0000000000000E+00
 0.2200000000000E+00 -0.4304044648606E+01  0.0000000000000E+00
 0.2475000000000E+00 -0.4304044648606E+01  0.0000000000000E+00
 0.2750000000000E+00 -0.4304044648606E+01  0.0000000000000E+00
 0.3025000000000E+00 -0.4304044648606E+01  0.0000000000000E+00
 0.3300000000000E+00 -0.4304044648606E+01  0.0000000000000E+00
 0.3575000000000E+00 -0.4304044648606E+01  0.0000000000000E+00
 0.3850000000000E+00 -0.4304044648606E+01  0.0000000000000E+00
 0.4125000000000E+00 -0.4304044648606E+01  0.0000000000000E+00
 0.4400000000000E+00 -0.4304044648606E+01  0.0000000000000E+00
 0.4675000000000E+00 -0.4304044648606E+01  0.0000000000000E+00
 0.4950000000000E+00 -0.4304044648606E+01  0.0000000000000E+00
 0.5225000000000E+00 -0.4304044648606E+01  0.0000000000000E+00
 0.5500000000000E+00 -0.4304044648606E+01  0.0000000000000E+00
 0.5775000000000E+00 -0.4304044648606E+01  0.0000000000000E+00
 0.6050000000000E+00 -0.4304044648606E+01  0.0000000000000E+00
 0.6325000000000E+00 -0.4304044648606E+01  0.0000000000000E+00
 0.6600000000000E+00 -0.4304044648606E+01  0.0000000000000E+00
 0.6875000000000E+00 -0.4304044648606E+01  0.0000000000000E+00
 0.7150000000000E+00 -0.4304044648606E+01  0.0000000000000E+00
 0.7425000000000E+00 -0.4304044648606E+01  0.0000000000000E+00
 0.7700000000000E+00 -0.4304044648606E+01  0.0000000000000E+00
 0.7975000000000E+00 -0.4304044648606E+01  0.0000000000000E+00
 0.8250000000000E+00 -0.4304044648606E+01  0.0000000000000E+00
 0.8525000000000E+00 -0.4304044648606E+01  0.0000000000000E+00
 0.8800000000000E+00 -0.4304044648606E+01  0.0000000000000E+00
 0.9075000000000E+00 -0.4304044648606E+01  0.0000000000000E+00
 0.9350000000000E+00 -0.4304044648606E+01  0.0000000000000E+00
 0.9625000000000E+00 -0.4304044648606E+01  0.0000000000000E+00
 0.9900000000000E+00 -0.4304044648606E+01  0.0000000000000E+00
 0.1017500000000E+01 -0.4304044648606E+01  0.0000000000000E+00
 0.1045000000000E+01 -0.4304044648606E+01  0.0000000000000E+00
 0.1072500000000E+01 -0.4304044648606E+01  0.0000000000000E+00
-0.1391152984612E+01 -0.1485826169004E+01  0.0000000000000E+00
-0.1355910848380E+01 -0.1476732672072E+01  0.0000000000000E+00
-0.1320612835817E+01 -0.1467858633912E+01  0.0000000000000E+00
-0.1285259981017E+01 -0.1459205415754E+01  0.0000000000000E+00
-0.1249853511796E+01 -0.1450774398559E+01  0.0000000000000E+00
-0.1214394584761E+01 -0.1442566916018E+01  0.0000000000000E+00
-0.1178884329493E+01 -0.1434584266595E+01  0.0000000000000E+00
-0.1143323993112E+01 -0.1426827745365E+01  0.0000000000000E+00
-0.1107714835036E+01 -0.1419298618073E+01  0.0000000000000E+00
-0.1072058114862E+01 -0.1411998118171E+01  0.0000000000000E+00
-0.1036355114016E+01 -0.1404927450906E+01  0.0000000000000E+00
-0.1000607103274E+01 -0.1398087786375E+01  0.0000000000000E+00
-0.9648154637952E+00 -0.1391480281711E+01  0.0000000000000E+00
-0.9289815514207E+00 -0.1385106053576E+01  0.0000000000000E+00
-0.8931067449032E+00 -0.1378966186997E+01  0.0000000000000E+00
-0.8571924453329E+00 -0.1373061734396E+01  0.0000000000000E+00
-0.8212400755349E+00 -0.1367393714636E+01  0.0000000000000E+00
-0.7852510794390E+00 -0.1361963112090E+01  0.0000000000000E+00
-0.7492269214199E+00 -0.1356770875739E+01  0.0000000000000E+00
-0.6777056485815E+00 -0.1347184849055E+01  0.0000000000000E+00
-0.6422126030433E+00 -0.1342784468384E+01  0.0000000000000E+00
-0.6066914054888E+00 -0.1338617534531E+01  0.0000000000000E+00
-0.5711435255488E+00 -0.1334684768748E+01  0.0000000000000E+00
-0.5355704233029E+00 -0.1330986852489E+01  0.0000000000000E+00
-0.4999736369017E+00 -0.1327524435880E+01  0.0000000000000E+00
-0.4643546817971E+00 -0.1324298126257E+01  0.0000000000000E+00
-0.4287150862649E+00 -0.1321308491716E+01  0.0000000000000E+00
-0.3930563807228E+00 -0.1318556059836E+01  0.0000000000000E+00
-0.3573801183139E+00 -0.1316041318931E+01  0.0000000000000E+00
-0.3216878730590E+00 -0.1313764717124E+01  0.0000000000000E+00
-0.2859812157621E+00 -0.1311726660302E+01  0.0000000000000E+00
-0.2502617257092E+00 -0.1309927512732E+01  0.0000000000000E+00
-0.2145309892672E+00 -0.1308367596678E+01  0.0000000000000E+00
-0.1787905926666E+00 -0.1307047191884E+01  0.0000000000000E+00
-0.1430421463503E+00 -0.1305966536203E+01  0.0000000000000E+00
-0.1072872541886E+00 -0.1305125824139E+01  0.0000000000000E+00
-0.7152752388590E-01 -0.1304525207180E+01  0.0000000000000E+00
-0.3576456602431E-01 -0.1304164793652E+01  0.0000000000000E+00
 0.6896563736758E-08 -0.1304044648606E+01  0.0000000000000E+00
 0.3576457981713E-01 -0.1304164793745E+01  0.0000000000000E+00
 0.7152753767778E-01 -0.1304525207365E+01  0.0000000000000E+00
 0.1072872679789E+00 -0.1305125824417E+01  0.0000000000000E+00
 0.1430421601384E+00 -0.1305966536574E+01  0.0000000000000E+00
 0.1787906064519E+00 -0.1307047192347E+01  0.0000000000000E+00
 0.2145310030492E+00 -0.1308367597233E+01  0.0000000000000E+00
 0.2502617394871E+00 -0.1309927513380E+01  0.0000000000000E+00
 0.2859812295354E+00 -0.1311726661042E+01  0.0000000000000E+00
 0.3216878868270E+00 -0.1313764717956E+01  0.0000000000000E+00
 0.3573801320760E+00 -0.1316041319855E+01  0.0000000000000E+00
 0.3930563944785E+00 -0.1318556060852E+01  0.0000000000000E+00
 0.4287151000135E+00 -0.1321308492824E+01  0.0000000000000E+00
 0.4643546955381E+00 -0.1324298127456E+01  0.0000000000000E+00
 0.4999736506343E+00 -0.1327524437170E+01  0.0000000000000E+00
 0.5355704370268E+00 -0.1330986853870E+01  0.0000000000000E+00
 0.5711435392633E+00 -0.1334684770220E+01  0.0000000000000E+00
 0.6066914191932E+00 -0.1338617536093E+01  0.0000000000000E+00
 0.6422126167371E+00 -0.1342784470036E+01  0.0000000000000E+00
 0.6777056622642E+00 -0.1347184850797E+01  0.0000000000000E+00
 0.7492269343955E+00 -0.1356770877566E+01  0.0000000000000E+00
 0.7852510917199E+00 -0.1361963113902E+01  0.0000000000000E+00
 0.8212400871220E+00 -0.1367393716423E+01  0.0000000000000E+00
 0.8571924562271E+00 -0.1373061736151E+01  0.0000000000000E+00
 0.8931067551055E+00 -0.1378966188709E+01  0.0000000000000E+00
 0.9289815609321E+00 -0.1385106055236E+01  0.0000000000000E+00
 0.9648154726170E+00 -0.1391480283310E+01  0.0000000000000E+00
 0.1000607111408E+01 -0.1398087787904E+01  0.0000000000000E+00
[...]
<PointData Vectors="'U'">
<DataArray type="Float64" Name="U" NumberOfComponents="2" ComponentName0="U1" ComponentName1="U2" format="ascii">
-0.1823862024051E-37 -0.4666769965909E-37
-0.2698893216242E-37 -0.2587018051530E-37
-0.1768106398120E-37  0.4525887405485E-37
 0.5326835030587E-02 -0.2683325759542E-01
 0.1360511027883E-01 -0.1265020391898E-01
 0.2708634446636E-01 -0.2262878370388E-01
 0.3411715435485E-01 -0.5214124480182E-01
-0.4147814776554E-02 -0.3865299668623E+00
 0.5639498022822E+00 -0.3291509488342E+00
-0.9222152253731E-01 -0.6164488620750E+00
 0.5848289892221E+00 -0.4351046395563E+00
 0.2999593641398E-38 -0.3316287182473E-37
 0.1166035695724E-38 -0.2931202059597E-37
 0.3365584050936E-39 -0.2800352125947E-37
-0.3870489490822E-39 -0.2747198159599E-37
-0.1128017977633E-38 -0.2724498330240E-37
-0.1894952125621E-38 -0.2715301458582E-37
-0.2679855711788E-38 -0.2712311772732E-37
-0.3474670676920E-38 -0.2712019198788E-37
-0.4273565233107E-38 -0.2712621400139E-37
-0.5072665499630E-38 -0.2713165560759E-37
-0.5869489537314E-38 -0.2713152014317E-37
-0.6662491707644E-38 -0.2712335152413E-37
-0.7450747076836E-38 -0.2710616800623E-37
-0.8233742377263E-38 -0.2707985992161E-37
-0.9011237688794E-38 -0.2704483584355E-37
-0.9783174522408E-38 -0.2700180709122E-37
-0.1054961388368E-37 -0.2695165252022E-37
-0.1131069351100E-37 -0.2689533087375E-37
-0.1206659496714E-37 -0.2683381882007E-37
-0.1281755112790E-37 -0.2676810710550E-37
-0.1356126609941E-37 -0.2670885494403E-37
-0.1430019480445E-37 -0.2664858046759E-37
-0.1503469752204E-37 -0.2658799988183E-37
-0.1576499842882E-37 -0.2652781238647E-37
-0.1649130610951E-37 -0.2646864048613E-37
-0.1721381173243E-37 -0.2641102615087E-37
-0.1793268776570E-37 -0.2635542634270E-37
-0.1864808661581E-37 -0.2630221236720E-37
-0.1936013990970E-37 -0.2625166925305E-37
-0.2006895803343E-37 -0.2620399648592E-37
-0.2077463008777E-37 -0.2615930880008E-37
-0.2147722422406E-37 -0.2611763677413E-37
-0.2217678803704E-37 -0.2607892858523E-37
-0.2287334920288E-37 -0.2604305172394E-37
-0.2356691631396E-37 -0.2600979474134E-37
-0.2425747970373E-37 -0.2597887006623E-37
-0.2494501267795E-37 -0.2594991538906E-37
-0.2562947267185E-37 -0.2592249627234E-37
-0.2631080257384E-37 -0.2589610851125E-37
-0.2766377964262E-37 -0.2584407573347E-37
-0.2833525330516E-37 -0.2581709492818E-37
-0.2900325329098E-37 -0.2578847835560E-37
-0.2966767344335E-37 -0.2575740792969E-37
-0.3032840327285E-37 -0.2572300916276E-37
-0.3098533002745E-37 -0.2568435288339E-37
-0.3163834080949E-37 -0.2564045712748E-37
-0.3228732502160E-37 -0.2559028707093E-37
-0.3293217662448E-37 -0.2553275667121E-37
-0.3357279666669E-37 -0.2546672860763E-37
-0.3420909588967E-37 -0.2539101384003E-37
-0.3484099735762E-37 -0.2530437104159E-37
-0.3546843937284E-37 -0.2520550365116E-37
-0.3609137833610E-37 -0.2509305685566E-37
-0.3670979150901E-37 -0.2496561451772E-37
-0.3732367993910E-37 -0.2482169347177E-37
-0.3793307108810E-37 -0.2465973873497E-37
-0.3853802244825E-37 -0.2447811115888E-37
-0.3913862653596E-37 -0.2427508625149E-37
-0.3973503506747E-37 -0.2404881977916E-37
-0.4033133004534E-37 -0.2376385157898E-37
-0.4092395263979E-37 -0.2345020171336E-37
-0.4151305317186E-37 -0.2310562814272E-37
-0.4209888552496E-37 -0.2272766638624E-37
-0.4268170522865E-37 -0.2231365726878E-37
-0.4326173229718E-37 -0.2186074462672E-37
-0.4383908915609E-37 -0.2136589350775E-37
-0.4441369434768E-37 -0.2082595462515E-37
-0.4498508071528E-37 -0.2023782370032E-37
-0.4555208440468E-37 -0.1959879763733E-37
-0.4611231736474E-37 -0.1890732132802E-37
-0.4666127978173E-37 -0.1816461554676E-37
-0.4719093603295E-37 -0.1737824569046E-37
-0.4768771479675E-37 -0.1657038631979E-37
-0.4813106086032E-37 -0.1579836702745E-37
-0.4850001653745E-37 -0.1521114365461E-37
-0.4882937174009E-37 -0.1522782879523E-37
-0.4956316775800E-37 -0.1722597874792E-37
-0.5400884723100E-37 -0.2706638937179E-37
 0.5632115012838E-02 -0.2229270978699E-01
 0.6192770596169E-02 -0.1971403246779E-01
 0.6760166452086E-02 -0.1799144294235E-01
 0.7284058547014E-02 -0.1674556348830E-01
 0.7767615374538E-02 -0.1579975047048E-01
 0.8221032582716E-02 -0.1505973859363E-01
 0.8653004689897E-02 -0.1447041827582E-01
 0.9069626116897E-02 -0.1399699712557E-01
 0.9474968516222E-02 -0.1361603452015E-01
 0.9871751299734E-02 -0.1331086484216E-01
 0.1026183074789E-01 -0.1306911383656E-01
 0.1064651471630E-01 -0.1288127062118E-01
 0.1102675468154E-01 -0.1273982290374E-01
 0.1140326420895E-01 -0.1263870622948E-01
 0.1177658809072E-01 -0.1257294065176E-01
 0.1214714089877E-01 -0.1253838258417E-01
 0.1251522079261E-01 -0.1253155168066E-01
 0.1288099335548E-01 -0.1254950813675E-01
 0.1324442781074E-01 -0.1258975118022E-01
 0.1395842678795E-01 -0.1272751624198E-01
 0.1431133246539E-01 -0.1281912106374E-01
 0.1466358777903E-01 -0.1292405604914E-01
 0.1501519116292E-01 -0.1304122153201E-01
 0.1536616325296E-01 -0.1316955255761E-01
 0.1571653330534E-01 -0.1330808362790E-01
 0.1606632777119E-01 -0.1345595482166E-01
 0.1641556503420E-01 -0.1361240921397E-01
 0.1676425328198E-01 -0.1377678743881E-01
 0.1711238960550E-01 -0.1394852179160E-01
 0.1745996016162E-01 -0.1412713083081E-01
 0.1780694101771E-01 -0.1431221471471E-01
 0.1815329893126E-01 -0.1450345101115E-01
 0.1849899243004E-01 -0.1470059115841E-01
 0.1884397305447E-01 -0.1490345748368E-01
 0.1918818635415E-01 -0.1511194050423E-01
 0.1953157345280E-01 -0.1532599694639E-01
 0.1987407221929E-01 -0.1554564789277E-01
 0.2021561853858E-01 -0.1577097731696E-01
 0.2055614755542E-01 -0.1600213091794E-01
 0.2089559486189E-01 -0.1623931522924E-01
 0.2123389766230E-01 -0.1648279702980E-01
 0.2157099587397E-01 -0.1673290304277E-01
 0.2190683312433E-01 -0.1699001991413E-01
 0.2224135768182E-01 -0.1725459452749E-01
 0.2257452329803E-01 -0.1752713467936E-01
 0.2290628984860E-01 -0.1780821007016E-01
 0.2323662425675E-01 -0.1809845407952E-01
 0.2356550078989E-01 -0.1839856565171E-01
 0.2389290153398E-01 -0.1870931204000E-01
 0.2421881667553E-01 -0.1903153222478E-01
 0.2454324449772E-01 -0.1936614104253E-01
 0.2486619147432E-01 -0.1971413461143E-01
 0.2518767181470E-01 -0.2007659666805E-01
 0.2550770618919E-01 -0.2045470583177E-01
 0.2582631944708E-01 -0.2084974424843E-01
 0.2614353544233E-01 -0.2126310530468E-01
 0.2645936291148E-01 -0.2169630253926E-01
 0.2677377663651E-01 -0.2215092103348E-01
 0.2740363720029E-01 -0.2314195748341E-01
 0.2772062109592E-01 -0.2368417390480E-01
 0.2803719802912E-01 -0.2425818368156E-01
 0.2835340058261E-01 -0.2486702660365E-01
 0.2866938595754E-01 -0.2551420386779E-01
 0.2898541559712E-01 -0.2620379547141E-01
 0.2930186340302E-01 -0.2694061092223E-01
 0.2961924633989E-01 -0.2773039562888E-01
 0.2993828182763E-01 -0.2858012467173E-01
 0.3025998323414E-01 -0.2949843207591E-01
 0.3058581821698E-01 -0.3049626751417E-01
 0.3091796460307E-01 -0.3158792631425E-01
 0.3125972713306E-01 -0.3279276251866E-01
 0.3161618877360E-01 -0.3413818065771E-01
 0.3199512405908E-01 -0.3566517322853E-01
 0.3240787848732E-01 -0.3743921118333E-01
 0.3286836733874E-01 -0.3957319725311E-01
 0.3338333437368E-01 -0.4228027414650E-01
 0.3389716232267E-01 -0.4602100559229E-01
-0.1028506702474E+00 -0.1163741005291E+00
-0.1626347613992E+00 -0.1777420060199E+00
-0.2107876852010E+00 -0.2135652994279E+00
-0.2486705331005E+00 -0.2331951900821E+00
-0.2776194418708E+00 -0.2420121748818E+00
-0.2984207551043E+00 -0.2438662838965E+00
-0.3117212232052E+00 -0.2409691648873E+00
-0.3179546111123E+00 -0.2348081795407E+00
-0.3174309807920E+00 -0.2266487810398E+00
-0.3103812295507E+00 -0.2176353372636E+00
-0.2970847689210E+00 -0.2089774930068E+00
-0.2779505477699E+00 -0.2016142915199E+00
-0.2537885800556E+00 -0.1983278497129E+00
-0.2263729996297E+00 -0.2017889691402E+00
-0.1966536329102E+00 -0.2119353284858E+00
-0.1646593404704E+00 -0.2288983658352E+00
-0.1297503392076E+00 -0.2529960873734E+00
-0.9150794410603E-01 -0.2855069670844E+00
-0.4984309195347E-01 -0.3287141688874E+00
 0.1759684942759E-01 -0.4193490683311E+00
 0.4071321372746E-01 -0.4581134666303E+00
 0.6548845424226E-01 -0.5039966989035E+00
 0.9313429203707E-01 -0.5599268197220E+00
 0.1252835129445E+00 -0.6287862342408E+00
 0.1603017130220E+00 -0.7072922578140E+00
 0.1949699062590E+00 -0.7889200302160E+00
 0.2272259541874E+00 -0.8699014111351E+00
 0.2552699967134E+00 -0.9476254404583E+00
 0.2783393190478E+00 -0.1019932854549E+01
 0.2963685260822E+00 -0.1085025961358E+01
 0.3096668356056E+00 -0.1141437090539E+01
 0.3187368664354E+00 -0.1187996042651E+01
 0.3241817997205E+00 -0.1223798165786E+01
 0.3266598570113E+00 -0.1248177824381E+01
 0.3268631465814E+00 -0.1260692530846E+01
 0.3255080902114E+00 -0.1261111116112E+01
 0.3233327728297E+00 -0.1249408371812E+01
 0.3210991866006E+00 -0.1225766025061E+01
 0.3196001015798E+00 -0.1190578537896E+01
 0.3196368404537E+00 -0.1144479532966E+01
 0.3218745700068E+00 -0.1088404078216E+01
 0.3268444350822E+00 -0.1023563888466E+01
 0.3349510739671E+00 -0.9514943494600E+00
 0.3464402509345E+00 -0.8741519627697E+00
 0.3613168350936E+00 -0.7940880777993E+00
 0.3791108191975E+00 -0.7148163186415E+00
 0.3983450238176E+00 -0.6420698334449E+00
 0.4168559912023E+00 -0.5824194767470E+00
 0.4341845940377E+00 -0.5355716600522E+00
 0.4509918599294E+00 -0.4969638057186E+00
 0.4671936121177E+00 -0.4644258485182E+00
 0.4826243359966E+00 -0.4366884986163E+00
 0.4970027022844E+00 -0.4128567928526E+00
 0.5102877068323E+00 -0.3923620236298E+00
 0.5226109701954E+00 -0.3748241435121E+00
 0.5340811037887E+00 -0.3599361035766E+00
 0.5447752244723E+00 -0.3474550589958E+00
 0.5547361154724E+00 -0.3372054539314E+00
 0.5819647662275E+00 -0.3170880064421E+00
 0.5968185376838E+00 -0.3112781320778E+00
 0.6083795155445E+00 -0.3104129808633E+00
 0.6163633967398E+00 -0.3133328600205E+00
 0.6206370235545E+00 -0.3189212856569E+00
 0.6212262479773E+00 -0.3260483210503E+00
 0.6182518451040E+00 -0.3336686180321E+00
 0.6117221545734E+00 -0.3409818002344E+00
 0.6011180742818E+00 -0.3481064596497E+00
 0.5858277552405E+00 -0.3550203796353E+00
 0.5654914276532E+00 -0.3603963544564E+00
 0.5397235537687E+00 -0.3634417061695E+00
 0.5081828895626E+00 -0.3631775421605E+00
 0.4704905260966E+00 -0.3582965641111E+00
 0.4260957416011E+00 -0.3473193522301E+00
 0.3743273113257E+00 -0.3277815562508E+00
 0.3145301325526E+00 -0.2952638461220E+00
 0.2454325198267E+00 -0.2438587732020E+00
 0.1660426166990E+00 -0.1632852194116E+00
-0.5684519939839E-04 -0.1018352609712E-03
-0.4987326763145E-04 -0.1657386248890E-03
 0.7579692382056E-05 -0.2270164358630E-03
 0.1098892366024E-03 -0.2911096807611E-03
 0.2530143439641E-03 -0.3611695860719E-03
 0.4341009597047E-03 -0.4391221245181E-03
 0.6508176110856E-03 -0.5263348287543E-03
 0.9012337866700E-03 -0.6239022563662E-03
 0.1183681584786E-02 -0.7327799334687E-03
 0.1496687369609E-02 -0.8538668103366E-03
 0.1838920384732E-02 -0.9880606608441E-03
 0.2209153230782E-02 -0.1136300756623E-02
 0.2606239752450E-02 -0.1299610788835E-02
 0.3029090914272E-02 -0.1479141116746E-02
 0.3476625722846E-02 -0.1676205616813E-02
 0.3947823382842E-02 -0.1892379447881E-02
 0.4441644298513E-02 -0.2129572446954E-02
 0.4957058214392E-02 -0.2390224525950E-02
 0.5493033113158E-02 -0.2677814465386E-02
 0.6047895209005E-02 -0.2997294949600E-02
 0.6618157143929E-02 -0.3350681923886E-02
 0.7199076046706E-02 -0.3736947276871E-02
 0.7785619394348E-02 -0.4154485000282E-02
 0.8372798660788E-02 -0.4602543805680E-02
 0.8955601153209E-02 -0.5081570600927E-02
 0.9528780477639E-02 -0.5593086956010E-02
 0.1008662914593E-01 -0.6139478492613E-02
 0.1062277133435E-01 -0.6723846173855E-02
 0.1112988673768E-01 -0.7349876675124E-02
 0.1159942772456E-01 -0.8021293471294E-02
 0.1202196145150E-01 -0.8741711373615E-02
 0.1238785476710E-01 -0.9516745535352E-02
 0.1268632991736E-01 -0.1035540565831E-01
 0.1290422566319E-01 -0.1127071014395E-01
 0.1302454141050E-01 -0.1228179050818E-01
 0.1302438983083E-01 -0.1341795574738E-01
 0.1286805481558E-01 -0.1472797179402E-01
 0.1250398641091E-01 -0.1629835079402E-01
 0.1178871383446E-01 -0.1830877092039E-01
 0.1060758240557E-01 -0.2132326164323E-01
 0.2664781357353E-01 -0.4491310146224E-01
 0.2412382765788E-01 -0.4078248486272E-01
 0.2212494588546E-01 -0.3790839627942E-01
 0.2052436007669E-01 -0.3559682541130E-01
 0.1915201453274E-01 -0.3362346093502E-01
 0.1794839453237E-01 -0.3187793679295E-01
 0.1687266299147E-01 -0.3029645884665E-01
 0.1589953280992E-01 -0.2883960066379E-01
 0.1501099771267E-01 -0.2748104336118E-01
 0.1419393626401E-01 -0.2620269665146E-01
 0.1343838846778E-01 -0.2499229242876E-01
 0.1273610129961E-01 -0.2384260314251E-01
 0.1207973480451E-01 -0.2274718459099E-01
 0.1146316513445E-01 -0.2169922739705E-01
 0.1088169213709E-01 -0.2069292832769E-01
 0.1033175899697E-01 -0.1972405834921E-01
 0.9810667498807E-02 -0.1879006251738E-01
 0.9316267996531E-02 -0.1789012775364E-01
 0.8846497524037E-02 -0.1702508733208E-01
 0.8398675290689E-02 -0.1619662065974E-01
 0.7968728716068E-02 -0.1540505410248E-01
 0.7551237410647E-02 -0.1464566096998E-01
 0.7141673401199E-02 -0.1390788286307E-01
 0.6738764984804E-02 -0.1318289704228E-01
 0.6342615159694E-02 -0.1246593754102E-01
 0.5953283246487E-02 -0.1175396355265E-01
 0.5570737148298E-02 -0.1104470746591E-01
 0.5194828162581E-02 -0.1033632205170E-01
 0.4825322388396E-02 -0.9627319818407E-02
 0.4461804603613E-02 -0.8916350170557E-02
 0.4103652567760E-02 -0.8202152193267E-02
 0.3749970887601E-02 -0.7483466568681E-02
 0.3399488870186E-02 -0.6758916024132E-02
 0.3050428939626E-02 -0.6026867314635E-02
 0.2700275612502E-02 -0.5285216799929E-02
 0.2345479223780E-02 -0.4531017777859E-02
 0.1980554164850E-02 -0.3759841575351E-02
 0.1597678253636E-02 -0.2964274571469E-02
 0.1179947895043E-02 -0.2129654572987E-02
 0.7026657709257E-03 -0.1234171185539E-02
-0.7552739274434E-01 -0.6376410229922E+00
-0.5796401549127E-01 -0.6584787711241E+00
-0.3949258507295E-01 -0.6787152455199E+00
-0.2014173705395E-01 -0.6981411088537E+00
 0.3998008502293E-04 -0.7165548546428E+00
 0.2098903620578E-01 -0.7337656017646E+00
 0.4263009010800E-01 -0.7495955196279E+00
 0.6487851163522E-01 -0.7638826045850E+00
 0.8764212296977E-01 -0.7764813651150E+00
 0.1108226625367E+00 -0.7872637245668E+00
 0.1343170075631E+00 -0.7961215958260E+00
 0.1580186315710E+00 -0.8029685040352E+00
 0.1818189841149E+00 -0.8077404036723E+00
 0.2056087472470E+00 -0.8103960663580E+00
 0.2292789729705E+00 -0.8109172221547E+00
 0.2527221613100E+00 -0.8093085294591E+00
 0.2758332512998E+00 -0.8055973628824E+00
 0.2985105971328E+00 -0.7998334342663E+00
 0.3206569527436E+00 -0.7920882311872E+00
 0.3421804949099E+00 -0.7824542545028E+00
 0.3629958994527E+00 -0.7710440023184E+00
 0.3830254435364E+00 -0.7579885499011E+00
 0.4022001447506E+00 -0.7434358826417E+00
 0.4204609055921E+00 -0.7275489130623E+00
 0.4377596205875E+00 -0.7105031122468E+00
 0.4540601769084E+00 -0.6924837201197E+00
 0.4693392579127E+00 -0.6736825381059E+00
 0.4835868359482E+00 -0.6542943114906E+00
 0.4968062484152E+00 -0.6345126898495E+00
 0.5090136828811E+00 -0.6145259444119E+00
 0.5202370148617E+00 -0.5945127555316E+00
 0.5305140402642E+00 -0.5746384789336E+00
 0.5398902528100E+00 -0.5550520968579E+00
 0.5484163019512E+00 -0.5358843248247E+00
 0.5561456658076E+00 -0.5172483966865E+00
 0.5631329087911E+00 -0.4992415735180E+00
 0.5694325604686E+00 -0.4819465674210E+00
 0.5750993302279E+00 -0.4654360163358E+00
 0.5801922768108E+00 -0.4497828682248E+00
-0.1014475793686E+00 -0.5776377736258E+00
-0.1090745684401E+00 -0.5393334189805E+00
-0.1153818483218E+00 -0.5014301901337E+00
-0.1205777108458E+00 -0.4640142898015E+00
-0.1247669689900E+00 -0.4271628573833E+00
-0.1279788190416E+00 -0.3909318724178E+00
-0.1301757630509E+00 -0.3553608564218E+00
-0.1312698226403E+00 -0.3204817737909E+00
-0.1311211806094E+00 -0.2863534527485E+00
-0.1296184407363E+00 -0.2530756680355E+00
-0.1266798500537E+00 -0.2207770064063E+00
-0.1221580155660E+00 -0.1896239817773E+00
-0.1158336923543E+00 -0.1598257365736E+00
-0.1074055616878E+00 -0.1316258802118E+00
-0.9649297194503E-01 -0.1052972482152E+00
-0.8264757429130E-01 -0.8113803534555E-01
-0.6535763932759E-01 -0.5946723730656E-01
-0.4403897577645E-01 -0.4061719830108E-01
-0.1799986076923E-01 -0.2491877535688E-01
 0.5752053424412E+00 -0.4189819401644E+00
 0.5632919802108E+00 -0.4014062667300E+00
 0.5493914396095E+00 -0.3824154977931E+00
 0.5337763649791E+00 -0.3621837632039E+00
 0.5166271515530E+00 -0.3408961149078E+00
 0.4980469188648E+00 -0.3187218481111E+00
 0.4780587895259E+00 -0.2958133848370E+00
 0.4566223726628E+00 -0.2723125048060E+00
 0.4336354246058E+00 -0.2483771296562E+00
 0.4090108713304E+00 -0.2241981127846E+00
 0.3826759919671E+00 -0.1999907072844E+00
 0.3544987642879E+00 -0.1759942965220E+00
 0.3242858923640E+00 -0.1524727017625E+00
 0.2917747515018E+00 -0.1297021700145E+00
 0.2566381207175E+00 -0.1079608277300E+00
 0.2184975110369E+00 -0.8751815544206E-01
 0.1769361799668E+00 -0.6862056877645E-01
 0.1315096516506E+00 -0.5146680035820E-01
 0.8173870577743E-01 -0.3616264588802E-01
-0.1002575451596E+00 -0.6160169681577E+00
-0.1074879818923E+00 -0.6140406468072E+00
-0.1137629502366E+00 -0.6105043256514E+00
-0.1189734545716E+00 -0.6054081709822E+00
-0.1230183954655E+00 -0.5987550208479E+00
-0.1257980047963E+00 -0.5905600331984E+00
-0.1272123507248E+00 -0.5808556336634E+00
-0.1271625991153E+00 -0.5696962439526E+00
-0.1255539049875E+00 -0.5571627191099E+00
-0.1222997276563E+00 -0.5433666758095E+00
-0.1173276772444E+00 -0.5284546179074E+00
-0.1105872112194E+00 -0.5126116253992E+00
-0.1020596218957E+00 -0.4960641710755E+00
-0.9177077788730E-01 -0.4790813255473E+00
-0.7980688263182E-01 -0.4619730999055E+00
-0.6633282863778E-01 -0.4450838361705E+00
-0.5161046476338E-01 -0.4287769533641E+00
-0.3601022329754E-01 -0.4134057344943E+00
-0.1999374880880E-01 -0.3992607833380E+00
 0.5915338539016E+00 -0.4304648651194E+00
 0.5972354433805E+00 -0.4251859294357E+00
 0.6018665605890E+00 -0.4193967718012E+00
 0.6054290186402E+00 -0.4132034856539E+00
 0.6079459883637E+00 -0.4067030501878E+00
 0.6094535438700E+00 -0.3999899127470E+00
 0.6099974924413E+00 -0.3931576471463E+00
 0.6096326144901E+00 -0.3862990886399E+00
 0.6084225137500E+00 -0.3795055434951E+00
 0.6064394228342E+00 -0.3728654436947E+00
 0.6037636388858E+00 -0.3664626731425E+00
 0.6004824740035E+00 -0.3603747676780E+00
 0.5966887339870E+00 -0.3546711848271E+00
 0.5924788422816E+00 -0.3494118272464E+00
 0.5879508165097E+00 -0.3446459629567E+00
 0.5832024089115E+00 -0.3404116176773E+00
 0.5783297217430E+00 -0.3367353306105E+00
 0.5734274637711E+00 -0.3336323277829E+00
 0.5685898895391E+00 -0.3311051927383E+00
-0.4766627589473E-04 -0.9423046243162E-04
-0.4313143580994E-04 -0.1801590822369E-03
 0.1529575291798E-04 -0.2590267567209E-03
 0.1187716228767E-03 -0.3396752254074E-03
 0.2636131332618E-03 -0.4251980422151E-03
 0.4467584563520E-03 -0.5177587929534E-03
 0.6658512883127E-03 -0.6188687189341E-03
 0.9189228082541E-03 -0.7297320962630E-03
 0.1204286131654E-02 -0.8513872098500E-03
 0.1520454182276E-02 -0.9847972392964E-03
 0.1866088631057E-02 -0.1130910643514E-02
 0.2239958814437E-02 -0.1290707204168E-02
 0.2640919465635E-02 -0.1465243339277E-02
 0.3067886676898E-02 -0.1655695731612E-02
 0.3519789732359E-02 -0.1863399345110E-02
 0.3995625550433E-02 -0.2089946616540E-02
 0.4494383787015E-02 -0.2337259262556E-02
 0.5015089347673E-02 -0.2607786290981E-02
 0.5556771186724E-02 -0.2904817800415E-02
 0.6117721590875E-02 -0.3231885628311E-02
 0.6694253951759E-02 -0.3589216534368E-02
 0.7281317606053E-02 -0.3975269926805E-02
 0.7873623627926E-02 -0.4388789736041E-02
 0.8466020777906E-02 -0.4829457052223E-02
 0.9053384904630E-02 -0.5297889224868E-02
 0.9630355764360E-02 -0.5795446658010E-02
 0.1019107019918E-01 -0.6324056384824E-02
 0.1072892334676E-01 -0.6886090601587E-02
 0.1123625696659E-01 -0.7484226005312E-02
 0.1170415937483E-01 -0.8121339102295E-02
 0.1212305141956E-01 -0.8800993421365E-02
 0.1248317584233E-01 -0.9528211997754E-02
 0.1277333265167E-01 -0.1030990192837E-01
 0.1297959889704E-01 -0.1115581118383E-01