<VTKFile type="UnstructuredGrid" version="1,0" byte_order="LittleEndian">
<UnstructuredGrid>
<Piece NumberOfPoints="1502" NumberOfCells="1440">
<Points>
<DataArray type="Float64" NumberOfComponents="3" format="ascii">
-0.1100000000000E+01 -0.4304044648606E+01  0.0000000000000E+00
 0.0000000000000E+00 -0.4304044648606E+01  0.0000000000000E+00
 0.1100000000000E+01 -0.4304044648606E+01  0.0000000000000E+00
-0.1426338184892E+01 -0.1495137730994E+01  0.0000000000000E+00
-0.7131690856113E+00 -0.1351817918288E+01  0.0000000000000E+00
 0.7131690992823E+00 -0.1351817920119E+01  0.0000000000000E+00
 0.1426338184892E+01 -0.1495137730994E+01  0.0000000000000E+00
-0.1297471036855E+01  0.8924645033579E+00  0.0000000000000E+00
 0.1297471037589E+01  0.8924645030013E+00  0.0000000000000E+00
-0.7500000000000E+00  0.3449934570704E+00  0.0000000000000E+00
 0.7500000000000E+00  0.3449934570704E+00  0.0000000000000E+00
-0.1045000000000E+01 -0.4304044648606E+01  0.0000000000000E+00
-0.9900000000000E+00 -0.4304044648606E+01  0.0000000000000E+00
-0.9350000000000E+00 -0.4304044648606E+01  0.0000000000000E+00
-0.8800000000000E+00 -0.4304044648606E+01  0.0000000000000E+00
-0.8250000000000E+00 -0.4304044648606E+01  0.0000000000000E+00
-0.7700000000000E+00 -0.4304044648606E+01  0.0000000000000E+00
-0.7150000000000E+00 -0.4304044648606E+01  0.0000000000000E+00
-0.6600000000000E+00 -0.4304044648606E+01  0.0000000000000E+00
-0.6050000000000E+00 -0.4304044648606E+01  0.0000000000000E+00
-0.5500000000000E+00 -0.4304044648606E+01  0.0000000000000E+00
-0.4950000000000E+00 -0.4304044648606E+01  0.0000000000000E+00
-0.4400000000000E+00 -0.4304044648606E+01  0.0000000000000E+00
-0.3850000000000E+00 -0.4304044648606E+01  0.0000000000000E+00
-0.3300000000000E+00 -0.4304044648606E+01  0.0000000000000E+00
-0.2750000000000E+00 -0.4304044648606E+01  0.0000000000000E+00
-0.2200000000000E+00 -0.4304044648606E+01  0.0000000000000E+00
-0.1650000000000E+00 -0.4304044648606E+01  0.0000000000000E+00
-0.1100000000000E+00 -0.4304044648606E+01  0.0000000000000E+00
-0.5500000000000E-01 -0.4304044648606E+01  0.0000000000000E+00
 0.5500000000000E-01 -0.4304044648606E+01  0.0000000000000E+00
 0.1100000000000E+00 -0.4304044648606E+01  0.0000000000000E+00
 0.1650000000000E+00 -0.4304044648606E+01  0.0000000000000E+00
 0.2200000000000E+00 -0.4304044648606E+01  0.0000000000000E+00
 0.2750000000000E+00 -0.4304044648606E+01  0.0000000000000E+00
 0.3300000000000E+00 -0.4304044648606E+01  0.0000000000000E+00
 0.3850000000000E+00 -0.4304044648606E+01  0.0000000000000E+00
 0.4400000000000E+00 -0.4304044648606E+01  0.0000000000000E+00
 0.4950000000000E+00 -0.4304044648606E+01  0.0000000000000E+00
 0.5500000000000E+00 -0.4304044648606E+01  0.0000000000000E+00
 0.6050000000000E+00 -0.4304044648606E+01  0.0000000000000E+00
 0.6600000000000E+00 -0.4304044648606E+01  0.0000000000000E+00
 0.7150000000000E+00 -0.4304044648606E+01  0.0000000000000E+00
 0.7700000000000E+00 -0.4304044648606E+01  0.0000000000000E+00
 0.8250000000000E+00 -0.4304044648606E+01  0.0000000000000E+00
 0.8800000000000E+00 -0.4304044648606E+01  0.0000000000000E+00
 0.9350000000000E+00 -0.4304044648606E+01  0.0000000000000E+00
 0.9900000000000E+00 -0.4304044648606E+01  0.0000000000000E+00
 0.1045000000000E+01 -0.4304044648606E+01  0.0000000000000E+00
-0.1355910848380E+01 -0.1476732672072E+01  0.0000000000000E+00
-0.1285259981017E+01 -0.1459205415754E+01  0.0000000000000E+00
-0.1214394584761E+01 -0.1442566916018E+01  0.0000000000000E+00
-0.1143323993112E+01 -0.1426827745365E+01  0.0000000000000E+00
-0.1072058114862E+01 -0.1411998118171E+01  0.0000000000000E+00
-0.1000607103274E+01 -0.1398087786375E+01  0.0000000000000E+00
-0.9289815514207E+00 -0.1385106053576E+01  0.0000000000000E+00
-0.8571924453329E+00 -0.1373061734396E+01  0.0000000000000E+00
-0.7852510794390E+00 -0.1361963112090E+01  0.0000000000000E+00
-0.6422126030433E+00 -0.1342784468384E+01  0.0000000000000E+00
-0.5711435255488E+00 -0.1334684768748E+01  0.0000000000000E+00
-0.4999736369017E+00 -0.1327524435880E+01  0.0000000000000E+00
-0.4287150862649E+00 -0.1321308491716E+01  0.0000000000000E+00
-0.3573801183139E+00 -0.1316041318931E+01  0.0000000000000E+00
-0.2859812157621E+00 -0.1311726660302E+01  0.0000000000000E+00
-0.2145309892672E+00 -0.1308367596678E+01  0.0000000000000E+00
-0.1430421463503E+00 -0.1305966536203E+01  0.0000000000000E+00
-0.7152752388590E-01 -0.1304525207180E+01  0.0000000000000E+00
 0.6896563986558E-08 -0.1304044648606E+01  0.0000000000000E+00
 0.7152753767778E-01 -0.1304525207365E+01  0.0000000000000E+00
 0.1430421601384E+00 -0.1305966536574E+01  0.0000000000000E+00
 0.2145310030492E+00 -0.1308367597233E+01  0.0000000000000E+00
 0.2859812295354E+00 -0.1311726661042E+01  0.0000000000000E+00
 0.3573801320760E+00 -0.1316041319855E+01  0.0000000000000E+00
 0.4287151000135E+00 -0.1321308492824E+01  0.0000000000000E+00
 0.4999736506343E+00 -0.1327524437170E+01  0.0000000000000E+00
 0.5711435392633E+00 -0.1334684770220E+01  0.0000000000000E+00
 0.6422126167371E+00 -0.1342784470036E+01  0.0000000000000E+00
 0.7852510917199E+00 -0.1361963113902E+01  0.0000000000000E+00
 0.8571924562271E+00 -0.1373061736151E+01  0.0000000000000E+00
 0.9289815609321E+00 -0.1385106055236E+01  0.0000000000000E+00
 0.1000607111408E+01 -0.1398087787904E+01  0.0000000000000E+00
 0.1072058121623E+01 -0.1411998119533E+01  0.0000000000000E+00
 0.1143323998507E+01 -0.1426827746523E+01  0.0000000000000E+00
 0.1214394588795E+01 -0.1442566916938E+01  0.0000000000000E+00
 0.1285259983698E+01 -0.1459205416402E+01  0.0000000000000E+00
 0.1355910849717E+01 -0.1476732672412E+01  0.0000000000000E+00
-0.1579712636672E+01 -0.1257117726587E+01  0.0000000000000E+00
-0.1733164540211E+01 -0.1019175933670E+01  0.0000000000000E+00
-0.1854662117542E+01 -0.7635066404071E+00  0.0000000000000E+00
-0.1941975481337E+01 -0.4942606593644E+00  0.0000000000000E+00
-0.1991516502432E+01 -0.2156092846034E+00  0.0000000000000E+00
-0.1998781287050E+01  0.6736447573279E-01  0.0000000000000E+00
-0.1925316867218E+01  0.3385059547416E+00  0.0000000000000E+00
-0.1756248887890E+01  0.5644442091257E+00  0.0000000000000E+00
-0.1540277150090E+01  0.7471961778048E+00  0.0000000000000E+00
-0.1173981215584E+01  0.9468055532948E+00  0.0000000000000E+00
-0.1048246390832E+01  0.9957805369659E+00  0.0000000000000E+00
-0.9216449825030E+00  0.1042480347406E+01  0.0000000000000E+00
-0.7946812217419E+00  0.1088183183765E+01  0.0000000000000E+00
-0.6661180574429E+00  0.1129122063103E+01  0.0000000000000E+00
-0.5354041844713E+00  0.1162549250252E+01  0.0000000000000E+00
-0.4029695874389E+00  0.1188340213072E+01  0.0000000000000E+00
-0.2693161135181E+00  0.1206817739605E+01  0.0000000000000E+00
-0.1348660417516E+00  0.1218121850014E+01  0.0000000000000E+00
 0.4058846663134E-09  0.1222022719718E+01  0.0000000000000E+00
 0.1348660425620E+00  0.1218121849962E+01  0.0000000000000E+00
 0.2693161143243E+00  0.1206817739504E+01  0.0000000000000E+00
 0.4029695882387E+00  0.1188340212925E+01  0.0000000000000E+00
 0.5354041852619E+00  0.1162549250060E+01  0.0000000000000E+00
 0.6661180582227E+00  0.1129122062868E+01  0.0000000000000E+00
 0.7946812225112E+00  0.1088183183495E+01  0.0000000000000E+00
 0.9216449832687E+00  0.1042480347127E+01  0.0000000000000E+00
 0.1048246391595E+01  0.9957805366789E+00  0.0000000000000E+00
 0.1173981216337E+01  0.9468055529829E+00  0.0000000000000E+00
 0.1540277150686E+01  0.7471961773831E+00  0.0000000000000E+00
 0.1756248888337E+01  0.5644442086587E+00  0.0000000000000E+00
 0.1925316867476E+01  0.3385059542402E+00  0.0000000000000E+00
 0.1998781287072E+01  0.6736447525390E-01  0.0000000000000E+00
 0.1991516502379E+01 -0.2156092849952E+00  0.0000000000000E+00
 0.1941975481197E+01 -0.4942606596555E+00  0.0000000000000E+00
 0.1854662117367E+01 -0.7635066405985E+00  0.0000000000000E+00
 0.1733164540072E+01 -0.1019175933786E+01  0.0000000000000E+00
 0.1579712636620E+01 -0.1257117726658E+01  0.0000000000000E+00
-0.1100000000000E+01 -0.4167858878309E+01  0.0000000000000E+00
-0.1100000000000E+01 -0.4031673085110E+01  0.0000000000000E+00
-0.1100000000000E+01 -0.3895487265942E+01  0.0000000000000E+00
-0.1100000000000E+01 -0.3759301447614E+01  0.0000000000000E+00
-0.1100000000000E+01 -0.3623115632099E+01  0.0000000000000E+00
-0.1100000000000E+01 -0.3486929673705E+01  0.0000000000000E+00
-0.1100000000000E+01 -0.3350743588902E+01  0.0000000000000E+00
-0.1100000000000E+01 -0.3214558196319E+01  0.0000000000000E+00
-0.1100000000000E+01 -0.3078372499853E+01  0.0000000000000E+00
-0.1100009219814E+01 -0.2942186831538E+01  0.0000000000000E+00
-0.1101425067002E+01 -0.2806011978909E+01  0.0000000000000E+00
-0.1107601577287E+01 -0.2669976600093E+01  0.0000000000000E+00
-0.1119747344921E+01 -0.2534345262128E+01  0.0000000000000E+00
-0.1137772499496E+01 -0.2399367495624E+01  0.0000000000000E+00
-0.1161564969771E+01 -0.2265287019052E+01  0.0000000000000E+00
-0.1191325563594E+01 -0.2132404467843E+01  0.0000000000000E+00
-0.1226713953463E+01 -0.2000906688008E+01  0.0000000000000E+00
-0.1267386994665E+01 -0.1870945985496E+01  0.0000000000000E+00
-0.1313508982080E+01 -0.1742820021577E+01  0.0000000000000E+00
-0.1365854654983E+01 -0.1617114507943E+01  0.0000000000000E+00
 0.1365854655064E+01 -0.1617114507984E+01  0.0000000000000E+00
 0.1313508982144E+01 -0.1742820021612E+01  0.0000000000000E+00
 0.1267386994709E+01 -0.1870945985522E+01  0.0000000000000E+00
 0.1226713953493E+01 -0.2000906688028E+01  0.0000000000000E+00
 0.1191325563615E+01 -0.2132404467860E+01  0.0000000000000E+00
 0.1161564969779E+01 -0.2265287019065E+01  0.0000000000000E+00
 0.1137772499496E+01 -0.2399367495636E+01  0.0000000000000E+00
 0.1119747344920E+01 -0.2534345262137E+01  0.0000000000000E+00
 0.1107601577287E+01 -0.2669976600103E+01  0.0000000000000E+00
 0.1101425067003E+01 -0.2806011978917E+01  0.0000000000000E+00
 0.1100009219814E+01 -0.2942186831546E+01  0.0000000000000E+00
 0.1100000000000E+01 -0.3078372499860E+01  0.0000000000000E+00
[...]
<PointData Vectors="'U'">
<DataArray type="Float64" Name="U" NumberOfComponents="2" ComponentName0="U1" ComponentName1="U2" format="ascii">
-0.8726214318962E-37 -0.2276884042241E-36
-0.8082688196216E-37 -0.8440406601761E-37
-0.8907937621482E-37  0.2323086307628E-36
-0.4734870207635E-01 -0.5935089885244E-01
-0.4108533013789E-01 -0.2563781624397E-01
-0.2739788216440E-01 -0.9174268965082E-02
-0.1864085939672E-01 -0.1830387612331E-01
-0.7220305727346E+00 -0.3017059041549E+00
-0.2205284005720E+00 -0.4642584569739E+00
-0.7096614337460E+00 -0.3552258839384E+00
-0.1286552349859E+00 -0.6666904582373E+00
-0.9875103779007E-37 -0.4346271149259E-36
-0.1010620172828E-36 -0.3808870030317E-36
-0.9854426412457E-37 -0.3459010967061E-36
-0.9576339991682E-37 -0.3187531764827E-36
-0.9336214655589E-37 -0.2959063177980E-36
-0.9138012404056E-37 -0.2757843020624E-36
-0.8975468643017E-37 -0.2575470316694E-36
-0.8841537442404E-37 -0.2406939517674E-36
-0.8730188280467E-37 -0.2249025852390E-36
-0.8636876310286E-37 -0.2099539752232E-36
-0.8557502433579E-37 -0.1957657904960E-36
-0.8488428326350E-37 -0.1821401883951E-36
-0.8427374896958E-37 -0.1689807455184E-36
-0.8372236008269E-37 -0.1562092277556E-36
-0.8321241421888E-37 -0.1437588680297E-36
-0.8272887516901E-37 -0.1315706202676E-36
-0.8225886322205E-37 -0.1195905955931E-36
-0.8179129958379E-37 -0.1077682692939E-36
-0.8131666987731E-37 -0.9605519798291E-37
-0.8031520047451E-37 -0.7276795803384E-37
-0.7977624629718E-37 -0.6109976224014E-37
-0.7920605470636E-37 -0.4935163623605E-37
-0.7860218925925E-37 -0.3747447313347E-37
-0.7796391358483E-37 -0.2541729224341E-37
-0.7729242602706E-37 -0.1312648846567E-37
-0.7659116697392E-37 -0.5448232149633E-39
-0.7586621447607E-37  0.1238999567933E-37
-0.7512677521593E-37  0.2574736806593E-37
-0.7438175373786E-37  0.3960883536056E-37
-0.7365839301162E-37  0.5414521911969E-37
-0.7297826907716E-37  0.6939421900919E-37
-0.7237005423674E-37  0.8550369722496E-37
-0.7187266467145E-37  0.1026757928143E-36
-0.7153330096415E-37  0.1212018800239E-36
-0.7140176951331E-37  0.1415336167415E-36
-0.7150030502855E-37  0.1644428466355E-36
-0.7167151422907E-37  0.1914642939361E-36
-0.7062008332311E-37  0.2266419328591E-36
-0.4709813631313E-01 -0.5004978310273E-01
-0.4634102183863E-01 -0.4448805835263E-01
-0.4556123270785E-01 -0.4047433173763E-01
-0.4484249016312E-01 -0.3731462729519E-01
-0.4417482174166E-01 -0.3469114656087E-01
-0.4353895502380E-01 -0.3243707868905E-01
-0.4291976579150E-01 -0.3045602283020E-01
-0.4230753967224E-01 -0.2868753047712E-01
-0.4169684666556E-01 -0.2709111666622E-01
-0.4048156014318E-01 -0.2433118934627E-01
-0.3986764818265E-01 -0.2312296412513E-01
-0.3924602933173E-01 -0.2199879825904E-01
-0.3861643144159E-01 -0.2094726684110E-01
-0.3797850680558E-01 -0.1995822015848E-01
-0.3733191177055E-01 -0.1902290164663E-01
-0.3667640404246E-01 -0.1813375687579E-01
-0.3601186675685E-01 -0.1728431180607E-01
-0.3533831401418E-01 -0.1646909092650E-01
-0.3465588088674E-01 -0.1568357087467E-01
-0.3396480363108E-01 -0.1492416464079E-01
-0.3326539010455E-01 -0.1418822970160E-01
-0.3255798235032E-01 -0.1347409748001E-01
-0.3184291427973E-01 -0.1278112315674E-01
-0.3112046676329E-01 -0.1210975374841E-01
-0.3039082723947E-01 -0.1146161435088E-01
-0.2965405226029E-01 -0.1083959540730E-01
-0.2891003538093E-01 -0.1024790251557E-01
-0.2815833009207E-01 -0.9691813714251E-02
-0.2661391986282E-01 -0.8717901761583E-02
-0.2580342746866E-01 -0.8350720827147E-02
-0.2497026132278E-01 -0.8092503340942E-02
-0.2411170119374E-01 -0.7974667189444E-02
-0.2322086403620E-01 -0.8044979606202E-02
-0.2228713606478E-01 -0.8379913695119E-02
-0.2129870768880E-01 -0.9110361750711E-02
-0.2025542918979E-01 -0.1048067944750E-01
-0.1923649040118E-01 -0.1301106540859E-01
-0.2673993315585E+00 -0.2248971839345E+00
-0.3989055231571E+00 -0.3296250691146E+00
-0.5095265309894E+00 -0.3732716233555E+00
-0.5950170001608E+00 -0.3870163266463E+00
-0.6591638834818E+00 -0.3836813513280E+00
-0.7049519800796E+00 -0.3712938319181E+00
-0.7335712158586E+00 -0.3504606133519E+00
-0.7448213332104E+00 -0.3255936764480E+00
-0.7407246582171E+00 -0.3068494305277E+00
-0.7085959671800E+00 -0.3072534556427E+00
-0.6925519873543E+00 -0.3201583669713E+00
-0.6738427662794E+00 -0.3409859351989E+00
-0.6521155501653E+00 -0.3711516747998E+00
-0.6282819707643E+00 -0.4135643148492E+00
-0.6037640784240E+00 -0.4729351813385E+00
-0.5794071490373E+00 -0.5585589843598E+00
-0.5555991625472E+00 -0.6841628542027E+00
-0.5372422314475E+00 -0.8358298639409E+00
-0.5291807878234E+00 -0.9795682730736E+00
-0.5306722921783E+00 -0.1095449303204E+01
-0.5368820961229E+00 -0.1172220611694E+01
-0.5418894107373E+00 -0.1203834433334E+01
-0.5394802128701E+00 -0.1188152117194E+01
-0.5233571019630E+00 -0.1126585134439E+01
-0.4879877539858E+00 -0.1024231032089E+01
-0.4326103715654E+00 -0.8902413505953E+00
-0.3632326401921E+00 -0.7372785169567E+00
-0.2875610357691E+00 -0.5852365378415E+00
-0.1008958500210E+00 -0.3035083081059E+00
-0.2312822917742E-02 -0.2133820523978E+00
 0.8575634229085E-01 -0.1682601797294E+00
 0.1598831609332E+00 -0.1639569993004E+00
 0.2103931875716E+00 -0.1788994560934E+00
 0.2349147308848E+00 -0.1953727543758E+00
 0.2313251273178E+00 -0.2036171782763E+00
 0.1968283458264E+00 -0.1911013489773E+00
 0.1324136354015E+00 -0.1315510594822E+00
-0.1539896487321E-02 -0.2773513918376E-02
-0.2645869016357E-02 -0.4840098817635E-02
-0.3713009120581E-02 -0.6785912315880E-02
-0.4792629739343E-02 -0.8647882912639E-02
-0.5918571899525E-02 -0.1045269575714E-01
-0.7102213368218E-02 -0.1221419919351E-01
-0.8349048631385E-02 -0.1394299954313E-01
-0.9659825581404E-02 -0.1565038992291E-01
-0.1103249705399E-01 -0.1735199808659E-01
-0.1246614824301E-01 -0.1907961497042E-01
-0.1397595630892E-01 -0.2089471224282E-01
-0.1559066178897E-01 -0.2285001001435E-01
-0.1732747982751E-01 -0.2494584039960E-01
-0.1919789995888E-01 -0.2718706977046E-01
-0.2122212309163E-01 -0.2960634221274E-01
-0.2343567939246E-01 -0.3225864136200E-01
-0.2589790424209E-01 -0.3521894833468E-01
-0.2869411410582E-01 -0.3863065907541E-01
-0.3206203691357E-01 -0.4281432074280E-01
-0.3617586322669E-01 -0.4877069492464E-01
-0.2423461538468E-01 -0.1173965191083E-01
-0.2441359127086E-01 -0.8328521887220E-02
-0.2387154975966E-01 -0.6130889283102E-02
-0.2279520885614E-01 -0.4457663873348E-02
-0.2139304230818E-01 -0.3102255921556E-02
-0.1976108328558E-01 -0.1973986560179E-02
-0.1798042080073E-01 -0.1027168237539E-02
-0.1611940088947E-01 -0.2375083123385E-03
-0.1423451133235E-01  0.4172966348268E-03
-0.1237390987340E-01  0.9517051281772E-03
-0.1057988123293E-01  0.1364556186465E-02
-0.8884297023256E-02  0.1641283215162E-02
-0.7304518171026E-02  0.1796432066966E-02
-0.5851264582056E-02  0.1849733375939E-02
-0.4534477334512E-02  0.1813240994310E-02
-0.3364051913451E-02  0.1695594730893E-02
-0.2349841914838E-02  0.1503291171449E-02
-0.1502271378121E-02  0.1241256937242E-02
-0.8304434106617E-03  0.9124287715514E-03
-0.3470591482957E-03  0.5215352350181E-03
-0.7058264637327E+00 -0.3764769588891E+00
-0.7007498071703E+00 -0.4016719949500E+00
-0.6939136445727E+00 -0.4304471043736E+00
-0.6849544290309E+00 -0.4625333144189E+00
-0.6734640719639E+00 -0.4975584662873E+00
-0.6589857668244E+00 -0.5349559889923E+00
-0.6410442754351E+00 -0.5738852465286E+00
-0.6192086920577E+00 -0.6131895706049E+00
-0.5931818911384E+00 -0.6514030159125E+00
-0.5628726156079E+00 -0.6869075790850E+00
-0.5284127759821E+00 -0.7181335914554E+00
-0.4901375634368E+00 -0.7436621728967E+00
-0.4485557757249E+00 -0.7623042954992E+00
-0.4043162288796E+00 -0.7731535902353E+00
-0.3581748336409E+00 -0.7756250519972E+00
-0.3109624283417E+00 -0.7694820547717E+00
-0.2635551046043E+00 -0.7548328493164E+00
-0.2168430747019E+00 -0.7321327406565E+00
-0.1716819235736E+00 -0.7022633429075E+00
-0.6794220566538E+00 -0.3322759690971E+00
-0.6404487271056E+00 -0.3047665975825E+00
-0.5943384399860E+00 -0.2730748724244E+00
-0.5420050139192E+00 -0.2379131204217E+00
-0.4829379708929E+00 -0.2001800916353E+00
-0.4164242516261E+00 -0.1611892198317E+00
-0.3414858643743E+00 -0.1226544723783E+00
-0.2560905609816E+00 -0.8633550349138E-01
-0.1571881348027E+00 -0.5372600387502E-01
-0.9020923040189E-01 -0.5742325617574E+00
-0.5829204899339E-01 -0.4873164662432E+00
-0.3099312409850E-01 -0.4054721332456E+00
-0.7712729336201E-02 -0.3284695061247E+00
 0.1073569307528E-01 -0.2562964038583E+00
 0.2339484392822E-01 -0.1895059871071E+00
 0.2915868069221E-01 -0.1292797138070E+00
 0.2557034830330E-01 -0.7737156557319E-01
 0.8776677479593E-02 -0.3615539815141E-01
-0.7225135943255E+00 -0.3482259884784E+00
-0.7319184283562E+00 -0.3400638796996E+00
-0.7377940777958E+00 -0.3314835861518E+00
-0.7404814566153E+00 -0.3231308286646E+00
-0.7404903496112E+00 -0.3155680191387E+00
-0.7384221862039E+00 -0.3092581835293E+00
-0.7349163318425E+00 -0.3045484728246E+00
-0.7306085673757E+00 -0.3016622740046E+00
-0.7260930980612E+00 -0.3007000531527E+00
-0.1141058025635E+00 -0.6759442363255E+00
-0.1018906071421E+00 -0.6793447858128E+00
-0.9303643766598E-01 -0.6760924095499E+00
-0.8858168227183E-01 -0.6656542256470E+00
-0.8967729828732E-01 -0.6476960930972E+00
-0.9759997923806E-01 -0.6221852131120E+00
-0.1137112595352E+00 -0.5895228437110E+00
-0.1393071237159E+00 -0.5507384918002E+00
-0.1753111273388E+00 -0.5077476738058E+00
-0.1282434422128E-02 -0.2304918952450E-02
-0.2467670910578E-02 -0.4464924520296E-02
-0.3542049287857E-02 -0.6407155680212E-02
-0.4638591691184E-02 -0.8262288521610E-02
-0.5778073520329E-02 -0.1005329557554E-01
-0.6975648244804E-02 -0.1179832683763E-01
-0.8236115480213E-02 -0.1350956116834E-01
-0.9560050528326E-02 -0.1519935336151E-01
-0.1094470900798E-01 -0.1688391550505E-01
-0.1238926480917E-01 -0.1858567443551E-01
-0.1391103621077E-01 -0.2033967879986E-01
-0.1554258629018E-01 -0.2219240520817E-01
-0.1730287181264E-01 -0.2416148422660E-01
-0.1920347816846E-01 -0.2625498015690E-01
-0.2126661856152E-01 -0.2849326844223E-01
-0.2353223187544E-01 -0.3091671343759E-01
-0.2606078608949E-01 -0.3357586745809E-01
-0.2897475259431E-01 -0.3654834085999E-01
-0.3244761429725E-01 -0.4001225425896E-01
-0.3753411623017E-01 -0.4403681441302E-01
-0.1109183977513E-02 -0.2060453522560E-02
-0.2279744118837E-02 -0.4125386468403E-02
-0.3377766878982E-02 -0.6060208722095E-02
-0.4486199640824E-02 -0.7894441160799E-02
-0.5639641301592E-02 -0.9665426106383E-02
-0.6850529194843E-02 -0.1138859232909E-01
-0.8124328959643E-02 -0.1307698742249E-01
-0.9461201791381E-02 -0.1474266998409E-01
-0.1085874637874E-01 -0.1639926686170E-01
-0.1231847722331E-01 -0.1806002984788E-01
-0.1385930029622E-01 -0.1974738898398E-01
-0.1551292790399E-01 -0.2150379667474E-01
-0.1729935658669E-01 -0.2335102235316E-01
-0.1923323413531E-01 -0.2529729588869E-01
-0.2134016442784E-01 -0.2735497617080E-01
-0.2366346088183E-01 -0.2954995682255E-01
-0.2627713815056E-01 -0.3190506707489E-01
-0.2930902785238E-01 -0.3445251182927E-01
-0.3306653890146E-01 -0.3719226673235E-01
-0.3848931521992E-01 -0.4021719321635E-01
-0.9868743629102E-03 -0.1900320212221E-02
-0.2110963775799E-02 -0.3851212287104E-02
-0.3218201352699E-02 -0.5740592220171E-02
-0.4338560743229E-02 -0.7546145281475E-02
-0.5504184521323E-02 -0.9289229780316E-02
-0.6727984937059E-02 -0.1098511590586E-01
-0.8014870607069E-02 -0.1264520407799E-01
-0.9365100324305E-02 -0.1428014886025E-01
-0.1077738066906E-01 -0.1589979259310E-01
-0.1225574988105E-01 -0.1751073769617E-01
-0.1381969739900E-01 -0.1912849948459E-01
-0.1549899375294E-01 -0.2079167968221E-01
-0.1731437146623E-01 -0.2252145521351E-01
-0.1928408485635E-01 -0.2432435446704E-01
-0.2143738813973E-01 -0.2620666512707E-01
-0.2382299061981E-01 -0.2818153725283E-01
-0.2652289268962E-01 -0.3025345317455E-01
-0.2968758463700E-01 -0.3241381762160E-01
-0.3364862421535E-01 -0.3464727531076E-01
-0.3897459579052E-01 -0.3713894705585E-01
-0.8957900009375E-03 -0.1781148015881E-02
-0.1965952765192E-02 -0.3625872975704E-02
-0.3068151732492E-02 -0.5451079649787E-02
-0.4196759600649E-02 -0.7216289192493E-02
-0.5373088642268E-02 -0.8924970544728E-02
-0.6609013965307E-02 -0.1058793943635E-01
-0.7908929762826E-02 -0.1221442602751E-01
-0.9273289594234E-02 -0.1381258057058E-01
-0.1070221445884E-01 -0.1538852940949E-01
-0.1220175639880E-01 -0.1694427069830E-01
-0.1379132004359E-01 -0.1849097189575E-01
-0.1549865725765E-01 -0.2006334215040E-01
-0.1734507297599E-01 -0.2168025651893E-01
-0.1935202162241E-01 -0.2334596890162E-01
-0.2155247052923E-01 -0.2506205706927E-01
-0.2399933134551E-01 -0.2683332366075E-01
-0.2678088445560E-01 -0.2865240966474E-01
-0.3005421753677E-01 -0.3050200804845E-01
-0.3408897302779E-01 -0.3240309429581E-01
-0.3914637749325E-01 -0.3455951049112E-01
-0.8249088993013E-03 -0.1684908465906E-02
-0.1842589472589E-02 -0.3434485988318E-02
-0.2930387399960E-02 -0.5188721270565E-02
-0.4062265536856E-02 -0.6904300855294E-02
-0.5247394484201E-02 -0.8572293866301E-02
-0.6494600430728E-02 -0.1019718827396E-01
-0.7807534733840E-02 -0.1178513561704E-01
-0.9186887079491E-02 -0.1334138854715E-01
-0.1063407001565E-01 -0.1486875312922E-01
-0.1215653147181E-01 -0.1636602448644E-01
-0.1377318877573E-01 -0.1784130173910E-01
-0.1550993635886E-01 -0.1932546274378E-01
-0.1738843822773E-01 -0.2083466362795E-01
-0.1943268830889E-01 -0.2237105668752E-01
-0.2167853860378E-01 -0.2393329779499E-01
-0.2418135949746E-01 -0.2552172087576E-01
-0.2703048150159E-01 -0.2712622040301E-01
-0.3036793283122E-01 -0.2874015437886E-01
-0.3437660430808E-01 -0.3041546476909E-01
-0.3912138444416E-01 -0.3233251852700E-01
-0.7678180454618E-03 -0.1602719268864E-02
-0.1737408705627E-02 -0.3266800918143E-02
-0.2805640312266E-02 -0.4948896133385E-02
-0.3936237968342E-02 -0.6608874003260E-02
-0.5127975699288E-02 -0.8230734805012E-02
-0.6385564718848E-02 -0.9812948944460E-02
-0.7711499065234E-02 -0.1135803662200E-01
-0.9106600392249E-02 -0.1286827072221E-01
-0.1057325475189E-01 -0.1434362275305E-01
-0.1211973129984E-01 -0.1578060791626E-01
-0.1376420263851E-01 -0.1718499024753E-01
-0.1553084358033E-01 -0.1858400862396E-01
-0.1744139227416E-01 -0.1999125851320E-01
-0.1952152733423E-01 -0.2140744419394E-01
-0.2180870939369E-01 -0.2283006463882E-01
-0.2435833220636E-01 -0.2425862095636E-01
-0.2725408268268E-01 -0.2568718417457E-01
-0.3061013360060E-01 -0.2712434073807E-01
-0.3453029264906E-01 -0.2863681981234E-01
-0.3896959414390E-01 -0.3036895191133E-01
-0.7205899943714E-03 -0.1529699468641E-02
-0.1647137417064E-02 -0.3115976640084E-02
-0.2693481779389E-02 -0.4727179034186E-02
-0.3819290176605E-02 -0.6328201411312E-02
-0.5015493976908E-02 -0.7899691560165E-02
-0.6282531994514E-02 -0.9435307310873E-02
-0.7621389650373E-02 -0.1093393598998E-01
-0.9032796289962E-02 -0.1239498443561E-01
-0.1051972305893E-01 -0.1381605099392E-01
-0.1209076380477E-01 -0.1519200234241E-01
-0.1376314595424E-01 -0.1652675652348E-01
-0.1555937239056E-01 -0.1784419730756E-01
-0.1750088346617E-01 -0.1915578464758E-01
-0.1961408443482E-01 -0.2046160009555E-01
-0.2193654724359E-01 -0.2175957800005E-01
-0.2452095425909E-01 -0.2305120528583E-01
-0.2744010256896E-01 -0.2433786514998E-01
-0.3077671798288E-01 -0.2564073474729E-01
-0.3457375822973E-01 -0.2702879721528E-01
-0.3873182251220E-01 -0.2861146734191E-01
-0.6806972900201E-03 -0.1462952598813E-02
-0.1569045520672E-02 -0.2977406351849E-02
-0.2592945827740E-02 -0.4519870192021E-02
-0.3711548149161E-02 -0.6060361646886E-02
-0.4910352312950E-02 -0.7578455181511E-02
-0.6185918169526E-02 -0.9064339531887E-02
-0.7537533020515E-02 -0.1051365866469E-01
-0.8965566879203E-02 -0.1192321835187E-01
-0.1047318019320E-01 -0.1328865634722E-01
-0.1206886726243E-01 -0.1460364936577E-01
-0.1376872235827E-01 -0.1587064075673E-01
-0.1559352804918E-01 -0.1711049329047E-01
-0.1756398436638E-01 -0.1833304791139E-01
-0.1970623704861E-01 -0.1953857158341E-01
-0.2205643969998E-01 -0.2072669558965E-01
-0.2466217200089E-01 -0.2190252740966E-01
-0.2758253332358E-01 -0.2307505185175E-01
-0.3087095755623E-01 -0.2427352149073E-01
-0.3452802067353E-01 -0.2556211602172E-01
-0.3843227605315E-01 -0.2702101793296E-01
-0.6464371109586E-03 -0.1400657867757E-02
-0.1500943512603E-02 -0.2847930804536E-02
-0.2502876015698E-02 -0.4324034431140E-02
-0.3612783923642E-02 -0.5803554710756E-02
-0.4812695541345E-02 -0.7266277809929E-02
-0.6095928669742E-02 -0.8700096078950E-02
-0.7460038315508E-02 -0.1009798718958E-01
-0.8904786042723E-02 -0.1145452082736E-01
-0.1043315273282E-01 -0.1276374586010E-01
-0.1205316711558E-01 -0.1401850250709E-01
-0.1377959727937E-01 -0.1522006471806E-01
-0.1563137831665E-01 -0.1638662137302E-01
-0.1762798757899E-01 -0.1752690019267E-01
-0.1979436095340E-01 -0.1864203203982E-01
-0.2216386180990E-01 -0.1973417049885E-01
-0.2477730246430E-01 -0.2081260379094E-01
-0.2767944459669E-01 -0.2189274794574E-01
-0.3089920232095E-01 -0.2300785724460E-01
-0.3440985212563E-01 -0.2421435801439E-01
-0.3808578965850E-01 -0.2556955027544E-01
-0.6166126759174E-03 -0.1341618143256E-02
-0.1441090546802E-02 -0.2725339692828E-02
-0.2422098310493E-02 -0.4137392758741E-02
-0.3522538434902E-02 -0.5556202450433E-02
-0.4722442282326E-02 -0.6962430250892E-02
-0.6012571724630E-02 -0.8342593132300E-02
-0.7388825736636E-02 -0.9687621609014E-02
-0.8850156131551E-02 -0.1099026118053E-01
-0.1039903984842E-01 -0.1224331178335E-01
-0.1204272105338E-01 -0.1343906254791E-01
-0.1379444105476E-01 -0.1457787619432E-01
-0.1567110650283E-01 -0.1567559851263E-01
-0.1769048305024E-01 -0.1674028127561E-01
-0.1987544029550E-01 -0.1777440866423E-01
-0.2225546789433E-01 -0.1878304753049E-01
-0.2486374686195E-01 -0.1977949276024E-01
-0.2773152797326E-01 -0.2078393973548E-01
-0.3086866204821E-01 -0.2183075976905E-01
-0.3423218245589E-01 -0.2296782582734E-01
-0.3770165299843E-01 -0.2423598139416E-01
-0.5903368986568E-03 -0.1284996680813E-02
-0.1388107418942E-02 -0.2608145598552E-02
-0.2349562256448E-02 -0.3958506800398E-02
-0.3440329513750E-02 -0.5317636047102E-02
-0.4639476303275E-02 -0.6667359724843E-02
-0.5935827396440E-02 -0.7993497432663E-02
-0.7323755877965E-02 -0.9285513043030E-02
-0.8801250399111E-02 -0.1053474895618E-01
-0.1037000608458E-01 -0.1173307372659E-01
-0.1203620525596E-01 -0.1287246533066E-01
-0.1381137193190E-01 -0.1395259972146E-01
-0.1571020033965E-01 -0.1498729289748E-01
-0.1774831508583E-01 -0.1598425794714E-01
-0.1994585322024E-01 -0.1694758895607E-01
-0.2232777489158E-01 -0.1788525249662E-01
-0.2491958480239E-01 -0.1881391141687E-01
-0.2774088212815E-01 -0.1975690582649E-01
-0.3078773952303E-01 -0.2074790760677E-01
-0.3400903429406E-01 -0.2182696868685E-01
-0.3729284708117E-01 -0.2302248228516E-01
-0.5669658133657E-03 -0.1230252488159E-02
-0.1340857414315E-02 -0.2495135759778E-02
-0.2284174481409E-02 -0.3785723282704E-02
-0.3365359187642E-02 -0.5086093956563E-02
-0.4563238495368E-02 -0.6379338049795E-02
-0.5865233439091E-02 -0.7651067295163E-02
-0.7264354625046E-02 -0.8889778573739E-02
-0.8757532053175E-02 -0.1008579501625E-01
-0.1034546057646E-01 -0.1123032701685E-01
-0.1203302517935E-01 -0.1231522902041E-01
-0.1382984186117E-01 -0.1333965700366E-01
-0.1574818464560E-01 -0.1431563220715E-01
-0.1780113334815E-01 -0.1525075071301E-01
-0.2000554780590E-01 -0.1615081196122E-01
-0.2238144984642E-01 -0.1702648327963E-01
-0.2494696244001E-01 -0.1789709859064E-01
-0.2771193006748E-01 -0.1878789632186E-01
-0.3066285015284E-01 -0.1973091365576E-01
-0.3374538216848E-01 -0.2075940126296E-01
-0.3685848520129E-01 -0.2189253649713E-01
-0.5459789824606E-03 -0.1176964413118E-02
-0.1298416974704E-02 -0.2385456697018E-02
-0.2225009045992E-02 -0.3617984785696E-02
-0.3296927754736E-02 -0.4860652284037E-02
-0.4493234762412E-02 -0.6097804328852E-02
-0.5800374804110E-02 -0.7315187473619E-02
-0.7210161725555E-02 -0.8500746145634E-02
-0.8718412244660E-02 -0.9644126652734E-02
-0.1032464959839E-01 -0.1073612193968E-01
-0.1203226120905E-01 -0.1176861468371E-01
-0.1384877782866E-01 -0.1274036819676E-01
-0.1578385571555E-01 -0.1366179239740E-01
-0.1784768639722E-01 -0.1454049060996E-01
-0.2005345716990E-01 -0.1538392309834E-01