<VTKFile type="UnstructuredGrid" version="1,0" byte_order="LittleEndian">
<UnstructuredGrid>
<Piece NumberOfPoints="5802" NumberOfCells="5680">
<Points>
<DataArray type="Float64" NumberOfComponents="3" format="ascii">
-0.1100000000000E+01 -0.4731587125634E+01  0.0000000000000E+00
 0.0000000000000E+00 -0.4731587125634E+01  0.0000000000000E+00
 0.1100000000000E+01 -0.4731587125634E+01  0.0000000000000E+00
-0.1191315091097E+01 -0.1825930012610E+01  0.0000000000000E+00
-0.5956575398395E+00 -0.1755172846926E+01  0.0000000000000E+00
 0.5956575512579E+00 -0.1755172847830E+01  0.0000000000000E+00
 0.1191315091097E+01 -0.1825930012610E+01  0.0000000000000E+00
-0.1487255332335E+01  0.3711246317436E+00  0.0000000000000E+00
 0.1487255329206E+01  0.3711246337271E+00  0.0000000000000E+00
-0.6187500000000E+00 -0.4973806884503E+00  0.0000000000000E+00
 0.6187500000000E+00 -0.4973806884503E+00  0.0000000000000E+00
-0.1072500000000E+01 -0.4731587125634E+01  0.0000000000000E+00
-0.1045000000000E+01 -0.4731587125634E+01  0.0000000000000E+00
-0.1017500000000E+01 -0.4731587125634E+01  0.0000000000000E+00
-0.9900000000000E+00 -0.4731587125634E+01  0.0000000000000E+00
-0.9625000000000E+00 -0.4731587125634E+01  0.0000000000000E+00
-0.9350000000000E+00 -0.4731587125634E+01  0.0000000000000E+00
-0.9075000000000E+00 -0.4731587125634E+01  0.0000000000000E+00
-0.8800000000000E+00 -0.4731587125634E+01  0.0000000000000E+00
-0.8525000000000E+00 -0.4731587125634E+01  0.0000000000000E+00
-0.8250000000000E+00 -0.4731587125634E+01  0.0000000000000E+00
-0.7975000000000E+00 -0.4731587125634E+01  0.0000000000000E+00
-0.7700000000000E+00 -0.4731587125634E+01  0.0000000000000E+00
-0.7425000000000E+00 -0.4731587125634E+01  0.0000000000000E+00
-0.7150000000000E+00 -0.4731587125634E+01  0.0000000000000E+00
-0.6875000000000E+00 -0.4731587125634E+01  0.0000000000000E+00
-0.6600000000000E+00 -0.4731587125634E+01  0.0000000000000E+00
-0.6325000000000E+00 -0.4731587125634E+01  0.0000000000000E+00
-0.6050000000000E+00 -0.4731587125634E+01  0.0000000000000E+00
-0.5775000000000E+00 -0.4731587125634E+01  0.0000000000000E+00
-0.5500000000000E+00 -0.4731587125634E+01  0.0000000000000E+00
-0.5225000000000E+00 -0.4731587125634E+01  0.0000000000000E+00
-0.4950000000000E+00 -0.4731587125634E+01  0.0000000000000E+00
-0.4675000000000E+00 -0.4731587125634E+01  0.0000000000000E+00
-0.4400000000000E+00 -0.4731587125634E+01  0.0000000000000E+00
-0.4125000000000E+00 -0.4731587125634E+01  0.0000000000000E+00
-0.3850000000000E+00 -0.4731587125634E+01  0.0000000000000E+00
-0.3575000000000E+00 -0.4731587125634E+01  0.0000000000000E+00
-0.3300000000000E+00 -0.4731587125634E+01  0.0000000000000E+00
-0.3025000000000E+00 -0.4731587125634E+01  0.0000000000000E+00
-0.2750000000000E+00 -0.4731587125634E+01  0.0000000000000E+00
-0.2475000000000E+00 -0.4731587125634E+01  0.0000000000000E+00
-0.2200000000000E+00 -0.4731587125634E+01  0.0000000000000E+00
-0.1925000000000E+00 -0.4731587125634E+01  0.0000000000000E+00
-0.1650000000000E+00 -0.4731587125634E+01  0.0000000000000E+00
-0.1375000000000E+00 -0.4731587125634E+01  0.0000000000000E+00
-0.1100000000000E+00 -0.4731587125634E+01  0.0000000000000E+00
-0.8250000000000E-01 -0.4731587125634E+01  0.0000000000000E+00
-0.5500000000000E-01 -0.4731587125634E+01  0.0000000000000E+00
-0.2750000000000E-01 -0.4731587125634E+01  0.0000000000000E+00
 0.2750000000000E-01 -0.4731587125634E+01  0.0000000000000E+00
 0.5500000000000E-01 -0.4731587125634E+01  0.0000000000000E+00
 0.8250000000000E-01 -0.4731587125634E+01  0.0000000000000E+00
 0.1100000000000E+00 -0.4731587125634E+01  0.0000000000000E+00
 0.1375000000000E+00 -0.4731587125634E+01  0.0000000000000E+00
 0.1650000000000E+00 -0.4731587125634E+01  0.0000000000000E+00
 0.1925000000000E+00 -0.4731587125634E+01  0.0000000000000E+00
 0.2200000000000E+00 -0.4731587125634E+01  0.0000000000000E+00
 0.2475000000000E+00 -0.4731587125634E+01  0.0000000000000E+00
 0.2750000000000E+00 -0.4731587125634E+01  0.0000000000000E+00
 0.3025000000000E+00 -0.4731587125634E+01  0.0000000000000E+00
 0.3300000000000E+00 -0.4731587125634E+01  0.0000000000000E+00
 0.3575000000000E+00 -0.4731587125634E+01  0.0000000000000E+00
 0.3850000000000E+00 -0.4731587125634E+01  0.0000000000000E+00
 0.4125000000000E+00 -0.4731587125634E+01  0.0000000000000E+00
 0.4400000000000E+00 -0.4731587125634E+01  0.0000000000000E+00
 0.4675000000000E+00 -0.4731587125634E+01  0.0000000000000E+00
 0.4950000000000E+00 -0.4731587125634E+01  0.0000000000000E+00
 0.5225000000000E+00 -0.4731587125634E+01  0.0000000000000E+00
 0.5500000000000E+00 -0.4731587125634E+01  0.0000000000000E+00
 0.5775000000000E+00 -0.4731587125634E+01  0.0000000000000E+00
 0.6050000000000E+00 -0.4731587125634E+01  0.0000000000000E+00
 0.6325000000000E+00 -0.4731587125634E+01  0.0000000000000E+00
 0.6600000000000E+00 -0.4731587125634E+01  0.0000000000000E+00
 0.6875000000000E+00 -0.4731587125634E+01  0.0000000000000E+00
 0.7150000000000E+00 -0.4731587125634E+01  0.0000000000000E+00
 0.7425000000000E+00 -0.4731587125634E+01  0.0000000000000E+00
 0.7700000000000E+00 -0.4731587125634E+01  0.0000000000000E+00
 0.7975000000000E+00 -0.4731587125634E+01  0.0000000000000E+00
 0.8250000000000E+00 -0.4731587125634E+01  0.0000000000000E+00
 0.8525000000000E+00 -0.4731587125634E+01  0.0000000000000E+00
 0.8800000000000E+00 -0.4731587125634E+01  0.0000000000000E+00
 0.9075000000000E+00 -0.4731587125634E+01  0.0000000000000E+00
 0.9350000000000E+00 -0.4731587125634E+01  0.0000000000000E+00
 0.9625000000000E+00 -0.4731587125634E+01  0.0000000000000E+00
 0.9900000000000E+00 -0.4731587125634E+01  0.0000000000000E+00
 0.1017500000000E+01 -0.4731587125634E+01  0.0000000000000E+00
 0.1045000000000E+01 -0.4731587125634E+01  0.0000000000000E+00
 0.1072500000000E+01 -0.4731587125634E+01  0.0000000000000E+00
-0.1161675590434E+01 -0.1821293974842E+01  0.0000000000000E+00
-0.1132018469080E+01 -0.1816772081031E+01  0.0000000000000E+00
-0.1102344135527E+01 -0.1812364599475E+01  0.0000000000000E+00
-0.1072653001422E+01 -0.1808071792594E+01  0.0000000000000E+00
-0.1042945459471E+01 -0.1803893913795E+01  0.0000000000000E+00
-0.1013221952450E+01 -0.1799831217138E+01  0.0000000000000E+00
-0.9834829017084E+00 -0.1795883946982E+01  0.0000000000000E+00
-0.9537287316532E+00 -0.1792052341512E+01  0.0000000000000E+00
-0.9239598612408E+00 -0.1788336631619E+01  0.0000000000000E+00
-0.8941767210493E+00 -0.1784737043031E+01  0.0000000000000E+00
-0.8643797539566E+00 -0.1781253796152E+01  0.0000000000000E+00
-0.8345693957871E+00 -0.1777887103664E+01  0.0000000000000E+00
-0.8047460850418E+00 -0.1774637171701E+01  0.0000000000000E+00
-0.7749102599775E+00 -0.1771504199483E+01  0.0000000000000E+00
-0.7450623578572E+00 -0.1768488379244E+01  0.0000000000000E+00
-0.7152028352234E+00 -0.1765589898169E+01  0.0000000000000E+00
-0.6853321404180E+00 -0.1762808935500E+01  0.0000000000000E+00
-0.6554507240472E+00 -0.1760145663610E+01  0.0000000000000E+00
-0.6255590388957E+00 -0.1757600247935E+01  0.0000000000000E+00
-0.5659320403842E+00 -0.1752877555980E+01  0.0000000000000E+00
-0.5361977827764E+00 -0.1750699115345E+01  0.0000000000000E+00
-0.5064551822954E+00 -0.1748637656849E+01  0.0000000000000E+00
-0.4767046834532E+00 -0.1746693307634E+01  0.0000000000000E+00
-0.4469467825907E+00 -0.1744866190914E+01  0.0000000000000E+00
-0.4171818756954E+00 -0.1743156416506E+01  0.0000000000000E+00
-0.3874104734057E+00 -0.1741564093885E+01  0.0000000000000E+00
-0.3576330176963E+00 -0.1740089321191E+01  0.0000000000000E+00
-0.3278499563594E+00 -0.1738732189839E+01  0.0000000000000E+00
-0.2980617833702E+00 -0.1737492785992E+01  0.0000000000000E+00
-0.2682689204519E+00 -0.1736371185422E+01  0.0000000000000E+00
-0.2384718656336E+00 -0.1735367459648E+01  0.0000000000000E+00
-0.2086710716336E+00 -0.1734481671049E+01  0.0000000000000E+00
-0.1788669979735E+00 -0.1733713874997E+01  0.0000000000000E+00
-0.1490601279746E+00 -0.1733064120054E+01  0.0000000000000E+00
-0.1192509059245E+00 -0.1732532446511E+01  0.0000000000000E+00
-0.8943981808141E-01 -0.1732118888112E+01  0.0000000000000E+00
-0.5962732433722E-01 -0.1731823470688E+01  0.0000000000000E+00
-0.2981389296327E-01 -0.1731646212812E+01  0.0000000000000E+00
 0.5727055635285E-08 -0.1731587125634E+01  0.0000000000000E+00
 0.2981390441730E-01 -0.1731646212857E+01  0.0000000000000E+00
 0.5962733579097E-01 -0.1731823470779E+01  0.0000000000000E+00
 0.8943982953471E-01 -0.1732118888248E+01  0.0000000000000E+00
 0.1192509173772E+00 -0.1732532446692E+01  0.0000000000000E+00
 0.1490601394265E+00 -0.1733064120281E+01  0.0000000000000E+00
 0.1788670094244E+00 -0.1733713875269E+01  0.0000000000000E+00
 0.2086710830833E+00 -0.1734481671367E+01  0.0000000000000E+00
 0.2384718770819E+00 -0.1735367460011E+01  0.0000000000000E+00
 0.2682689318987E+00 -0.1736371185830E+01  0.0000000000000E+00
 0.2980617948153E+00 -0.1737492786445E+01  0.0000000000000E+00
 0.3278499678026E+00 -0.1738732190338E+01  0.0000000000000E+00
 0.3576330291375E+00 -0.1740089321735E+01  0.0000000000000E+00
 0.3874104848446E+00 -0.1741564094474E+01  0.0000000000000E+00
 0.4171818871319E+00 -0.1743156417141E+01  0.0000000000000E+00
 0.4469467940246E+00 -0.1744866191594E+01  0.0000000000000E+00
 0.4767046948843E+00 -0.1746693308359E+01  0.0000000000000E+00
 0.5064551937236E+00 -0.1748637657619E+01  0.0000000000000E+00
 0.5361977942015E+00 -0.1750699116160E+01  0.0000000000000E+00
 0.5659320518060E+00 -0.1752877556840E+01  0.0000000000000E+00
 0.6255590497397E+00 -0.1757600248837E+01  0.0000000000000E+00
 0.6554507343169E+00 -0.1760145664505E+01  0.0000000000000E+00
 0.6853321501138E+00 -0.1762808936384E+01  0.0000000000000E+00
 0.7152028443456E+00 -0.1765589899036E+01  0.0000000000000E+00
 0.7450623664059E+00 -0.1768488380091E+01  0.0000000000000E+00
 0.7749102679531E+00 -0.1771504200305E+01  0.0000000000000E+00
 0.8047460924447E+00 -0.1774637172493E+01  0.0000000000000E+00
 0.8345694026177E+00 -0.1777887104422E+01  0.0000000000000E+00
[...]
<PointData Vectors="'U'">
<DataArray type="Float64" Name="U" NumberOfComponents="2" ComponentName0="U1" ComponentName1="U2" format="ascii">
 0.1535472352727E-37  0.3857486380061E-37
-0.2250756043824E-37 -0.1054470231916E-37
-0.4038165150326E-38  0.1010128289535E-37
 0.3210748646332E-01  0.1269611415601E-01
 0.3280973091287E-01  0.1742725982960E-02
 0.3784554059726E-01 -0.1996716974772E-01
 0.4464359731186E-01 -0.4411206208610E-01
 0.5326183033099E+00  0.1937392427238E+00
 0.9225701742862E+00 -0.6796800623852E+00
 0.2442428399109E+00 -0.4534131346331E-01
 0.5109734279195E+00 -0.3863552515943E+00
 0.1536929390101E-37  0.7108502051651E-37
 0.1501353028914E-37  0.6288259884071E-37
 0.1372710715890E-37  0.5762264517213E-37
 0.1231758288933E-37  0.5357540679149E-37
 0.1092817947856E-37  0.5018141622912E-37
 0.9585247922557E-38  0.4719609060769E-37
 0.8290357478053E-38  0.4449098216687E-37
 0.7039665557486E-38  0.4199032108419E-37
 0.5828564005388E-38  0.3964571137044E-37
 0.4652811718202E-38  0.3742438508361E-37
 0.3508748179444E-38  0.3530313453581E-37
 0.2393265093507E-38  0.3326492116867E-37
 0.1303724787037E-38  0.3129686231739E-37
 0.2378780858347E-39  0.2938897678897E-37
-0.8062055378350E-39  0.2753337161404E-37
-0.1830194416663E-38  0.2572369679279E-37
-0.2835539438884E-38  0.2395476926910E-37
-0.3823509376131E-38  0.2222230726753E-37
-0.4795217788984E-38  0.2052273990401E-37
-0.5751551891362E-38  0.1885311331513E-37
-0.6693636885827E-38  0.1720919551283E-37
-0.7622075623137E-38  0.1559003725117E-37
-0.8537562869574E-38  0.1399379026848E-37
-0.9440709837960E-38  0.1241886643475E-37
-0.1033206089251E-37  0.1086390521431E-37
-0.1121209983697E-37  0.9327743644243E-38
-0.1208125579528E-37  0.7809388026685E-38
-0.1293990782913E-37  0.6307995506891E-38
-0.1378838899220E-37  0.4822856025449E-38
-0.1462698978291E-37  0.3353377278188E-38
-0.1545596088039E-37  0.1899074876150E-38
-0.1627551566021E-37  0.4595596154783E-39
-0.1708583214030E-37 -0.9654688211306E-39
-0.1788705467715E-37 -0.2376230046114E-38
-0.1867929538394E-37 -0.3772869607068E-38
-0.1946263522163E-37 -0.5155462840674E-38
-0.2023712493791E-37 -0.6524021276461E-38
-0.2100278573622E-37 -0.7878494867484E-38
-0.2175960976935E-37 -0.9218776054663E-38
-0.2324657250070E-37 -0.1185605822209E-37
-0.2397655198886E-37 -0.1315257717545E-37
-0.2469737593144E-37 -0.1443394276050E-37
-0.2540889186981E-37 -0.1569978932794E-37
-0.2611091713541E-37 -0.1694970203459E-37
-0.2680323788567E-37 -0.1818321779563E-37
-0.2748560787102E-37 -0.1939982217887E-37
-0.2815774682443E-37 -0.2059895086944E-37
-0.2881933855248E-37 -0.2177998551369E-37
-0.2947002851672E-37 -0.2294225161367E-37
-0.3010942089280E-37 -0.2408501721200E-37
-0.3073707512409E-37 -0.2520748383275E-37
-0.3135250146571E-37 -0.2630878722011E-37
-0.3195515589198E-37 -0.2738798632289E-37
-0.3254443364687E-37 -0.2844405744245E-37
-0.3311966133896E-37 -0.2947588895225E-37
-0.3368008765427E-37 -0.3048226305185E-37
-0.3422487132120E-37 -0.3146185431807E-37
-0.3475306827429E-37 -0.3241321209074E-37
-0.3526364378299E-37 -0.3333474845608E-37
-0.3575590407384E-37 -0.3421517973098E-37
-0.3622797340165E-37 -0.3506166973791E-37
-0.3667825042309E-37 -0.3587208681407E-37
-0.3710485924645E-37 -0.3664409244977E-37
-0.3750557929294E-37 -0.3737513213112E-37
-0.3787774435696E-37 -0.3806244059785E-37
-0.3821809938160E-37 -0.3870307662533E-37
-0.3852259328877E-37 -0.3929401149003E-37
-0.3878607208042E-37 -0.3983232850476E-37
-0.3900181539401E-37 -0.4031563411014E-37
-0.3916082599360E-37 -0.4074289690808E-37
-0.3925073818580E-37 -0.4111618185371E-37
-0.3925418984643E-37 -0.4144434864370E-37
-0.3914667613375E-37 -0.4175137119100E-37
-0.3889509211998E-37 -0.4209649313348E-37
-0.3846429447736E-37 -0.4262831649395E-37
-0.3787073707989E-37 -0.4375196184051E-37
-0.3750819739373E-37 -0.4675828357344E-37
-0.4030928300434E-37 -0.5693426391651E-37
 0.3204696967952E-01  0.1193247594622E-01
 0.3201383560058E-01  0.1129187380290E-01
 0.3200179991658E-01  0.1070196511759E-01
 0.3200646949054E-01  0.1013686846652E-01
 0.3202348880573E-01  0.9585504394834E-02
 0.3204957822269E-01  0.9042514218728E-02
 0.3208244855698E-01  0.8505129186148E-02
 0.3212055433660E-01  0.7971840035881E-02
 0.3216286499501E-01  0.7441780387133E-02
 0.3220869623265E-01  0.6914423890836E-02
 0.3225759476447E-01  0.6389428742091E-02
 0.3230926183785E-01  0.5866554818473E-02
 0.3236350276762E-01  0.5345618880080E-02
 0.3242019353918E-01  0.4826469611939E-02
 0.3247925854018E-01  0.4308973924133E-02
 0.3254065582712E-01  0.3793010442074E-02
 0.3260436801610E-01  0.3278466807222E-02
 0.3267040150240E-01  0.2765244457464E-02
 0.3273878694920E-01  0.2253265438728E-02
 0.3288193312106E-01  0.1236136298890E-02
 0.3295686928005E-01  0.7296702315703E-03
 0.3303429301867E-01  0.2236138937791E-03
 0.3311419973166E-01 -0.2821101530034E-03
 0.3319660828818E-01 -0.7876050209543E-03
 0.3328154987625E-01 -0.1292995830581E-02
 0.3336905764260E-01 -0.1798417828066E-02
 0.3345916466325E-01 -0.2304016653109E-02
 0.3355190260878E-01 -0.2809945463890E-02
 0.3364730120425E-01 -0.3316363531982E-02
 0.3374538845756E-01 -0.3823438020542E-02
 0.3384619014869E-01 -0.4331341535175E-02
 0.3394973024836E-01 -0.4840254478839E-02
 0.3405603081134E-01 -0.5350364604351E-02
 0.3416511200058E-01 -0.5861867281221E-02
 0.3427699243452E-01 -0.6374967234983E-02
 0.3439168903805E-01 -0.6889877912874E-02
 0.3450921747513E-01 -0.7406823504179E-02
 0.3462959223089E-01 -0.7926039277770E-02
 0.3475282687970E-01 -0.8447772718029E-02
 0.3487893438637E-01 -0.8972284737773E-02
 0.3500792741138E-01 -0.9499850856497E-02
 0.3513981865136E-01 -0.1003076249222E-01
 0.3527462125147E-01 -0.1056532852366E-01
 0.3541234926324E-01 -0.1110387702310E-01
 0.3555301794317E-01 -0.1164675640749E-01
 0.3569664456118E-01 -0.1219433864492E-01
 0.3584324852535E-01 -0.1274701995853E-01
 0.3599285218674E-01 -0.1330522439912E-01
 0.3614548123840E-01 -0.1386940624449E-01
 0.3630116483254E-01 -0.1444005201625E-01
 0.3645993642331E-01 -0.1501768614435E-01
 0.3662183286947E-01 -0.1560287178740E-01
 0.3678689434552E-01 -0.1619621699913E-01
 0.3695516240141E-01 -0.1679837774961E-01
 0.3712667616067E-01 -0.1741005917409E-01
 0.3730146736838E-01 -0.1803201889480E-01
 0.3747955086589E-01 -0.1866505144480E-01
 0.3766091140306E-01 -0.1930994876979E-01
 0.3803477305053E-01 -0.2064355889326E-01
 0.3822957325837E-01 -0.2133619647311E-01
 0.3842967568980E-01 -0.2204638953244E-01
 0.3863525840901E-01 -0.2277584870072E-01
 0.3884665581524E-01 -0.2352651090449E-01
 0.3906435065967E-01 -0.2430062418348E-01
 0.3928898474836E-01 -0.2510082930333E-01
 0.3952139826796E-01 -0.2593027326381E-01
 0.3976269594816E-01 -0.2679276780230E-01
 0.4001435169618E-01 -0.2769302273809E-01
 0.4027837163822E-01 -0.2863700077495E-01
 0.4055754932169E-01 -0.2963247854661E-01
 0.4085586778313E-01 -0.3068997695893E-01
 0.4117913073034E-01 -0.3182438133455E-01
 0.4153593498071E-01 -0.3305793021654E-01
 0.4193910779220E-01 -0.3442610600986E-01
 0.4240758768285E-01 -0.3599029572171E-01
 0.4296896667069E-01 -0.3786818868794E-01
 0.4365928464896E-01 -0.4032899223210E-01
 0.4116911805319E-01  0.2381335100856E-01
 0.4390175557771E-01  0.3921935903863E-01
 0.4930588603463E-01  0.5696045452210E-01
 0.5880228848905E-01  0.7645802250391E-01
 0.7243779344108E-01  0.9721864451725E-01
 0.8995454395744E-01  0.1185791336045E+00
 0.1111132561606E+00  0.1388815134398E+00
 0.1353828720641E+00  0.1575136177048E+00
 0.1622828577748E+00  0.1746003472285E+00
 0.1915043194597E+00  0.1901812082381E+00
 0.2227958510172E+00  0.2041398821067E+00
 0.2559035110373E+00  0.2162531461506E+00
 0.2905460844608E+00  0.2264046482075E+00
 0.3264369758805E+00  0.2344105149682E+00
 0.3632663037723E+00  0.2399476628900E+00
 0.4006850724581E+00  0.2428023416884E+00
 0.4383902392565E+00  0.2434239773980E+00
 0.4752690757319E+00  0.2373171208143E+00
 0.5079934033389E+00  0.2204350181470E+00
 0.5425231392338E+00  0.1724152452371E+00
 0.5495163376096E+00  0.1500653426723E+00
 0.5541253023684E+00  0.1272158771230E+00
 0.5563451095448E+00  0.1041391545254E+00
 0.5563423136600E+00  0.8107709396605E-01
 0.5548112601322E+00  0.5811949082311E-01
 0.5523175090621E+00  0.3520080699773E-01
 0.5493816234072E+00  0.1212506654467E-01
 0.5465626077992E+00 -0.1144464540218E-01
 0.5444422592147E+00 -0.3598354821323E-01
 0.5436596731723E+00 -0.6213262146203E-01
 0.5445588371855E+00 -0.9064201180910E-01
 0.5471776276679E+00 -0.1226217565341E+00
 0.5519217429225E+00 -0.1601705601987E+00
 0.5590117483311E+00 -0.2035353520698E+00
 0.5681929636880E+00 -0.2501202495281E+00
 0.5794001330788E+00 -0.2976984220357E+00
 0.5926953197802E+00 -0.3448454054425E+00
 0.6081114645223E+00 -0.3905847844836E+00
 0.6256020409162E+00 -0.4342381296804E+00
 0.6450054280063E+00 -0.4753291149798E+00
 0.6660076815308E+00 -0.5134894539692E+00
 0.6882716101190E+00 -0.5484547661948E+00
 0.7114585056411E+00 -0.5800472976210E+00
 0.7352126636884E+00 -0.6081598782006E+00
 0.7591492372335E+00 -0.6327481038054E+00
 0.7828403764279E+00 -0.6538303332017E+00
 0.8057949283046E+00 -0.6714978864653E+00
 0.8274299545549E+00 -0.6859338104569E+00
 0.8470467934106E+00 -0.6973995682914E+00
 0.8638897823813E+00 -0.7060287772147E+00
 0.8774888295038E+00 -0.7116724945572E+00
 0.8879430513851E+00 -0.7141618993241E+00
 0.8957239763340E+00 -0.7134097867440E+00
 0.9015753858396E+00 -0.7095547798409E+00
 0.9063876687112E+00 -0.7030421776021E+00
 0.9110990893957E+00 -0.6947446038746E+00
 0.9160840866380E+00 -0.6863911045594E+00
 0.9203781795428E+00 -0.6806500346324E+00
 0.9212128014596E+00 -0.6848439072705E+00
 0.9115910167469E+00 -0.6926367160883E+00
 0.8940613556875E+00 -0.6972609850043E+00
 0.8706060967129E+00 -0.6976562954537E+00
 0.8428264592446E+00 -0.6953727936866E+00
 0.8111142015632E+00 -0.6894954626005E+00
 0.7760426960601E+00 -0.6796649675997E+00
 0.7381773849390E+00 -0.6657709952185E+00
 0.6979687087217E+00 -0.6476334043735E+00
 0.6557777591648E+00 -0.6249597134672E+00
 0.6118850638258E+00 -0.5975366012993E+00
 0.5664429302931E+00 -0.5648390886958E+00
 0.5196069684666E+00 -0.5256936533628E+00
 0.4718900457283E+00 -0.4782032858623E+00
 0.4239909561845E+00 -0.4222039393316E+00
 0.3752258487670E+00 -0.3614313060749E+00
 0.3233428016377E+00 -0.2968216658811E+00
 0.2642939385652E+00 -0.2266339336671E+00
 0.1904456098844E+00 -0.1420991345270E+00
 0.2333286245311E-03  0.4789760483060E-03
 0.3946431408716E-03  0.8645524020183E-03
 0.5676091685676E-03  0.1246158765670E-02
 0.7654141901732E-03  0.1624613197445E-02
 0.9959927404272E-03  0.2001308252853E-02
 0.1262839838948E-02  0.2376135837954E-02
 0.1568055048879E-02  0.2748596568197E-02
 0.1912748581442E-02  0.3118088558816E-02
 0.2297492973627E-02  0.3483989944760E-02
 0.2722500332295E-02  0.3845700959997E-02
 0.3187744983224E-02  0.4202654058172E-02
 0.3693033627089E-02  0.4554313800910E-02
 0.4238052158953E-02  0.4900172399531E-02
 0.4822393270717E-02  0.5239741873073E-02
 0.5445572655334E-02  0.5572545899937E-02
 0.6107038623583E-02  0.5898113069099E-02
 0.6806182449556E-02  0.6215973919382E-02
 0.7542303067407E-02  0.6525642583057E-02
 0.8314663068941E-02  0.6826641455290E-02
 0.9122417845907E-02  0.7118477691346E-02
 0.9964636253419E-02  0.7400665413891E-02
 0.1084028124522E-01  0.7672744350798E-02
 0.1174819790516E-01  0.7934349160056E-02
 0.1268720400803E-01  0.8185593606059E-02
 0.1365619931275E-01  0.8427956798879E-02
 0.1465396496765E-01  0.8663249833053E-02
 0.1567892089822E-01  0.8892909294887E-02
 0.1672903988479E-01  0.9117890194542E-02
 0.1780189499540E-01  0.9338857469555E-02
 0.1889475216417E-01  0.9556507567016E-02
 0.2000468300441E-01  0.9771877590471E-02
 0.2112866474391E-01  0.9986608193549E-02
 0.2226367420753E-01  0.1020311173630E-01
 0.2340688260665E-01  0.1042346406060E-01
 0.2455600292235E-01  0.1064946247239E-01
 0.2570959491696E-01  0.1088465355643E-01
 0.2686804933334E-01  0.1113487716164E-01
 0.2803372811856E-01  0.1140936031973E-01
 0.2922116253211E-01  0.1172371078121E-01
 0.3043347481923E-01  0.1212629610330E-01
 0.3755798968000E-01 -0.3992233960389E-01
 0.3478111290164E-01 -0.3725880525780E-01
 0.3241337366303E-01 -0.3527075652767E-01
 0.3041717966836E-01 -0.3358115590712E-01
 0.2862851718612E-01 -0.3208227902309E-01
 0.2699361380269E-01 -0.3071656744620E-01
 0.2547497989075E-01 -0.2944989684940E-01
 0.2405068779304E-01 -0.2826151922704E-01
 0.2270576435283E-01 -0.2713909451480E-01
 0.2142933219156E-01 -0.2607352801114E-01
 0.2021309708949E-01 -0.2505628691108E-01
 0.1905100942539E-01 -0.2408037782634E-01
 0.1793863312516E-01 -0.2314051694456E-01
 0.1687252299479E-01 -0.2223269179045E-01
 0.1584974384548E-01 -0.2135357087736E-01
 0.1486752551908E-01 -0.2049978300895E-01
 0.1392312294456E-01 -0.1966722556029E-01
 0.1301401922910E-01 -0.1885073529833E-01
 0.1213848439840E-01 -0.1804484555189E-01
 0.1129587740373E-01 -0.1724587938583E-01
 0.1048601760103E-01 -0.1645164948453E-01
 0.9708796783731E-02 -0.1566063056544E-01
 0.8964142927025E-02 -0.1487166752235E-01
 0.8252004925771E-02 -0.1408387056886E-01
 0.7572298463741E-02 -0.1329651635233E-01
 0.6924941993716E-02 -0.1250907162889E-01
 0.6309770903374E-02 -0.1172109430630E-01
 0.5726540183425E-02 -0.1093224351843E-01
 0.5174881876500E-02 -0.1014224743078E-01
 0.4654260455390E-02 -0.9350877178058E-02
 0.4163916586047E-02 -0.8557918699202E-02
 0.3702790933992E-02 -0.7763135867135E-02
 0.3269413002382E-02 -0.6966213839892E-02
 0.2861743534904E-02 -0.6166672985184E-02
 0.2476908183761E-02 -0.5363727048069E-02
 0.2110833504638E-02 -0.4556007395532E-02
 0.1757267183137E-02 -0.3741086985158E-02
 0.1407082936585E-02 -0.2914249712695E-02
 0.1041507442741E-02 -0.2064820160705E-02
 0.6314052662991E-03 -0.1177924132274E-02
 0.2481625253760E+00 -0.5384691259054E-01
 0.2521471125861E+00 -0.6258698098126E-01
 0.2562347202066E+00 -0.7155184548792E-01
 0.2604415024926E+00 -0.8073888216261E-01
 0.2647811244581E+00 -0.9014388311914E-01
 0.2692665599610E+00 -0.9976000184001E-01
 0.2739106073340E+00 -0.1095772585359E+00
 0.2787257986846E+00 -0.1195821717325E+00
 0.2837240428935E+00 -0.1297575428854E+00
 0.2889162495232E+00 -0.1400826114035E+00
 0.2943119165429E+00 -0.1505332621018E+00
 0.2999188059340E+00 -0.1610824471413E+00
 0.3057426994342E+00 -0.1717004640224E+00
 0.3117871741193E+00 -0.1823553561142E+00
 0.3180534000156E+00 -0.1930135225788E+00
 0.3245400219296E+00 -0.2036404039944E+00
 0.3312431247379E+00 -0.2142011308077E+00
 0.3381562807194E+00 -0.2246611193357E+00
 0.3452706626190E+00 -0.2349866205928E+00
 0.3525752114124E+00 -0.2451452239426E+00
 0.3600568431849E+00 -0.2551063000606E+00
 0.3677006674901E+00 -0.2648413318192E+00
 0.3754902259763E+00 -0.2743242274989E+00
 0.3834077366302E+00 -0.2835316118389E+00
 0.3914343407796E+00 -0.2924430555467E+00
 0.3995503437901E+00 -0.3010412453519E+00
 0.4077354414580E+00 -0.3093120976160E+00
 0.4159689210884E+00 -0.3172448132102E+00
 0.4242298409286E+00 -0.3248318825081E+00
 0.4324971510486E+00 -0.3320689998166E+00
 0.4407497457937E+00 -0.3389548591455E+00
 0.4489664790847E+00 -0.3454910208569E+00
 0.4571262476527E+00 -0.3516820206739E+00
 0.4652081192442E+00 -0.3575353523741E+00
 0.4731915620197E+00 -0.3630614853969E+00
 0.4810566158830E+00 -0.3682737929249E+00
 0.4887842484763E+00 -0.3731886394414E+00
 0.4963566079868E+00 -0.3778253725357E+00
 0.5037575150221E+00 -0.3822060582473E+00
 0.2243399440608E+00 -0.4206656638831E-01
 0.2049703893573E+00 -0.3887302908755E-01
 0.1861785252635E+00 -0.3570978206693E-01
 0.1680082369923E+00 -0.3259110343948E-01
 0.1505074155494E+00 -0.2954381379877E-01
 0.1337267151949E+00 -0.2659310760775E-01
 0.1177305995352E+00 -0.2375880153196E-01
 0.1025943921446E+00 -0.2105294438769E-01
 0.8840299133073E-01 -0.1847858980917E-01
 0.7525157738465E-01 -0.1603129393667E-01
 0.6324754173982E-01 -0.1370451427436E-01
 0.5251293760148E-01 -0.1149590184021E-01
 0.4318690609141E-01 -0.9409528399653E-02
 0.3542663574054E-01 -0.7452832647118E-02
 0.2940787815585E-01 -0.5632592637557E-02
 0.2532286430827E-01 -0.3951384385964E-02
 0.2337606085686E-01 -0.2400745540955E-02
 0.2379350228191E-01 -0.9579793344911E-03
 0.2683729369143E-01  0.4112407437395E-03
 0.4876334221412E+00 -0.3634829330635E+00
 0.4641224808720E+00 -0.3407056582721E+00
 0.4404139777917E+00 -0.3180360637033E+00
 0.4164867474074E+00 -0.2954981063867E+00
 0.3923331234788E+00 -0.2731195327820E+00
 0.3679533171535E+00 -0.2509325574706E+00
 0.3433525412134E+00 -0.2289804928847E+00
 0.3185493705178E+00 -0.2073244150702E+00
 0.2935826531675E+00 -0.1860488554303E+00
 0.2685157192536E+00 -0.1652649462485E+00
 0.2434326694937E+00 -0.1451070148746E+00
 0.2184273533645E+00 -0.1257247673228E+00
 0.1935961725531E+00 -0.1072782864011E+00
 0.1690443417169E+00 -0.8993928142059E-01
 0.1449034443390E+00 -0.7389325092896E-01
 0.1213410112863E+00 -0.5933655993875E-01
 0.9855668183998E-01 -0.4647306889031E-01
 0.7680489434250E-01 -0.3550973825060E-01
 0.5642445838415E-01 -0.2663598376716E-01
 0.2563362135884E+00 -0.3596805974756E-01
 0.2690867464649E+00 -0.2589159361693E-01
 0.2824818115864E+00 -0.1523725661979E-01
 0.2964524577880E+00 -0.4118220499971E-02
 0.3109161192221E+00  0.7364008019116E-02
 0.3257812050449E+00  0.1911664671634E-01
 0.3409499043033E+00  0.3105809342163E-01
 0.3563212655194E+00  0.4312065873159E-01
 0.3717952695966E+00  0.5525315281486E-01
 0.3872776108149E+00  0.6742270171724E-01
 0.4026847254805E+00  0.7961539135183E-01
 0.4179484566774E+00  0.9183538819738E-01
 0.4330196240516E+00  0.1041022981954E+00
 0.4478697214927E+00  0.1164467438617E+00
 0.4624900975840E+00  0.1289044948298E+00
 0.4768883752343E+00  0.1415099156574E+00
 0.4910824726693E+00  0.1542897779305E+00
 0.5050932288123E+00  0.1672584092844E+00
 0.5189364569912E+00  0.1804141087824E+00
 0.5415933922614E+00 -0.4121588676288E+00
 0.5721639479845E+00 -0.4377219327534E+00
 0.6025284946290E+00 -0.4628324197054E+00
 0.6325262562517E+00 -0.4872860273071E+00
 0.6619946490547E+00 -0.5108864219770E+00
 0.6907694098405E+00 -0.5334461243928E+00
 0.7186841655631E+00 -0.5547883628565E+00
 0.7455700013504E+00 -0.5747491425270E+00
 0.7712549959787E+00 -0.5931794051219E+00
 0.7955636627586E+00 -0.6099473152937E+00
 0.8183162868494E+00 -0.6249408711349E+00
 0.8393282511954E+00 -0.6380711889306E+00
 0.8584095951718E+00 -0.6492769948005E+00
 0.8753652808471E+00 -0.6585310914585E+00
 0.8899969942252E+00 -0.6658498901458E+00
 0.9021078798856E+00 -0.6713075961967E+00
 0.9115127597997E+00 -0.6750575840699E+00
 0.9180596174666E+00 -0.6773659075038E+00
 0.9216791577073E+00 -0.6786678631721E+00
 0.1874317022217E-03  0.4086514654856E-03
 0.3597909563283E-03  0.8049407974471E-03
 0.5319818965357E-03  0.1177250022780E-02
 0.7309066005808E-03  0.1544682619084E-02
 0.9622521219436E-03  0.1908439791402E-02
 0.1230111582113E-02  0.2269372143597E-02
 0.1536495853481E-02  0.2627369267732E-02
 0.1882549702538E-02  0.2982081376257E-02
 0.2268838825423E-02  0.3333045485862E-02
 0.2695572908757E-02  0.3679768195571E-02
 0.3162720697165E-02  0.4021755665565E-02
 0.3670083513790E-02  0.4358525392262E-02
 0.4217341986345E-02  0.4689609182263E-02
 0.4804083956715E-02  0.5014550269325E-02
 0.5429820641069E-02  0.5332898647254E-02
 0.6093996139111E-02  0.5644206817594E-02
 0.6795997528011E-02  0.5948028841732E-02
 0.7535119222390E-02  0.6243903600467E-02
 0.8310618623278E-02  0.6531380295706E-02
 0.9121644581824E-02  0.6809996218659E-02
 0.9967257222123E-02  0.7079299035595E-02
 0.1084640667175E-01  0.7338865722781E-02
 0.1175792321735E-01  0.7588337804072E-02
 0.1270061782531E-01  0.7827653820574E-02
 0.1367339955564E-01  0.8058070115586E-02
 0.1467505891260E-01  0.8281418651452E-02
 0.1570400555606E-01  0.8499332430152E-02
 0.1675817883613E-01  0.8713008520012E-02
 0.1783510064217E-01  0.8923314482225E-02
 0.1893197602896E-01  0.9131072068609E-02
 0.2004581281597E-01  0.9337359830330E-02
 0.2117352623234E-01  0.9543774159387E-02
 0.2231202515102E-01  0.9752659625135E-02
 0.2345840746848E-01  0.9966007245755E-02